# One tip4p/2005 water molecule

# size of the box
0 3.1060000 xlo xhi
0 3.1060000 ylo yhi
0 3.1060000 zlo zhi

# about the molecules
3 atoms
2 bonds
1 angles

# types specifications
2 atom types
1 bond types
1 angle types


Masses

    1 15.9994 # O
    2 1.0079  # H

Atoms
 #  id mol type  charge       x                 y                  z
    1   1   1   -1.1794    2.0000             2.0000             2.0000 
    2   1   2    0.5897    1.243049672736339  1.414117723381705  2.0000 
    3   1   2    0.5897    2.756950327263661  1.414117723381705  2.0000


Bonds

1 1 1 2
2 1 1 3

Angles

1 1 2 1 3
