ITEM: TIMESTEP
0
ITEM: NUMBER OF ATOMS
5184
ITEM: BOX BOUNDS pp pp ff
0.0000000000000000e+00 3.7271999999999998e+01
0.0000000000000000e+00 3.7271999999999998e+01
0.0000000000000000e+00 2.5000000000000000e+02
ITEM: ATOMS id type mol x y z ix iy iz
1 1 1 2 2 2 0 0 0
2 2 1 1.24305 1.41412 2 0 0 0
3 2 1 2.75695 1.41412 2 0 0 0
4 1 2 5.106 2 2 0 0 0
5 2 2 4.34905 1.41412 2 0 0 0
6 2 2 5.86295 1.41412 2 0 0 0
7 1 3 8.212 2 2 0 0 0
8 2 3 7.45505 1.41412 2 0 0 0
9 2 3 8.96895 1.41412 2 0 0 0
10 1 4 11.318 2 2 0 0 0
11 2 4 10.561 1.41412 2 0 0 0
12 2 4 12.075 1.41412 2 0 0 0
13 1 5 14.424 2 2 0 0 0
14 2 5 13.667 1.41412 2 0 0 0
15 2 5 15.181 1.41412 2 0 0 0
16 1 6 17.53 2 2 0 0 0
17 2 6 16.773 1.41412 2 0 0 0
18 2 6 18.287 1.41412 2 0 0 0
19 1 7 20.636 2 2 0 0 0
20 2 7 19.879 1.41412 2 0 0 0
21 2 7 21.393 1.41412 2 0 0 0
22 1 8 23.742 2 2 0 0 0
23 2 8 22.985 1.41412 2 0 0 0
24 2 8 24.499 1.41412 2 0 0 0
25 1 9 26.848 2 2 0 0 0
26 2 9 26.091 1.41412 2 0 0 0
27 2 9 27.605 1.41412 2 0 0 0
28 1 10 29.954 2 2 0 0 0
29 2 10 29.197 1.41412 2 0 0 0
30 2 10 30.711 1.41412 2 0 0 0
31 1 11 33.06 2 2 0 0 0
32 2 11 32.303 1.41412 2 0 0 0
33 2 11 33.817 1.41412 2 0 0 0
34 1 12 36.166 2 2 0 0 0
35 2 12 35.409 1.41412 2 0 0 0
36 2 12 36.923 1.41412 2 0 0 0
37 1 13 2 5.106 2 0 0 0
38 2 13 1.24305 4.52012 2 0 0 0
39 2 13 2.75695 4.52012 2 0 0 0
40 1 14 5.106 5.106 2 0 0 0
41 2 14 4.34905 4.52012 2 0 0 0
42 2 14 5.86295 4.52012 2 0 0 0
43 1 15 8.212 5.106 2 0 0 0
44 2 15 7.45505 4.52012 2 0 0 0
45 2 15 8.96895 4.52012 2 0 0 0
46 1 16 11.318 5.106 2 0 0 0
47 2 16 10.561 4.52012 2 0 0 0
48 2 16 12.075 4.52012 2 0 0 0
49 1 17 14.424 5.106 2 0 0 0
50 2 17 13.667 4.52012 2 0 0 0
51 2 17 15.181 4.52012 2 0 0 0
52 1 18 17.53 5.106 2 0 0 0
53 2 18 16.773 4.52012 2 0 0 0
54 2 18 18.287 4.52012 2 0 0 0
55 1 19 20.636 5.106 2 0 0 0
56 2 19 19.879 4.52012 2 0 0 0
57 2 19 21.393 4.52012 2 0 0 0
58 1 20 23.742 5.106 2 0 0 0
59 2 20 22.985 4.52012 2 0 0 0
60 2 20 24.499 4.52012 2 0 0 0
61 1 21 26.848 5.106 2 0 0 0
62 2 21 26.091 4.52012 2 0 0 0
63 2 21 27.605 4.52012 2 0 0 0
64 1 22 29.954 5.106 2 0 0 0
65 2 22 29.197 4.52012 2 0 0 0
66 2 22 30.711 4.52012 2 0 0 0
67 1 23 33.06 5.106 2 0 0 0
68 2 23 32.303 4.52012 2 0 0 0
69 2 23 33.817 4.52012 2 0 0 0
70 1 24 36.166 5.106 2 0 0 0
71 2 24 35.409 4.52012 2 0 0 0
72 2 24 36.923 4.52012 2 0 0 0
73 1 25 2 8.212 2 0 0 0
74 2 25 1.24305 7.62612 2 0 0 0
75 2 25 2.75695 7.62612 2 0 0 0
76 1 26 5.106 8.212 2 0 0 0
77 2 26 4.34905 7.62612 2 0 0 0
78 2 26 5.86295 7.62612 2 0 0 0
79 1 27 8.212 8.212 2 0 0 0
80 2 27 7.45505 7.62612 2 0 0 0
81 2 27 8.96895 7.62612 2 0 0 0
82 1 28 11.318 8.212 2 0 0 0
83 2 28 10.561 7.62612 2 0 0 0
84 2 28 12.075 7.62612 2 0 0 0
85 1 29 14.424 8.212 2 0 0 0
86 2 29 13.667 7.62612 2 0 0 0
87 2 29 15.181 7.62612 2 0 0 0
88 1 30 17.53 8.212 2 0 0 0
89 2 30 16.773 7.62612 2 0 0 0
90 2 30 18.287 7.62612 2 0 0 0
91 1 31 20.636 8.212 2 0 0 0
92 2 31 19.879 7.62612 2 0 0 0
93 2 31 21.393 7.62612 2 0 0 0
94 1 32 23.742 8.212 2 0 0 0
95 2 32 22.985 7.62612 2 0 0 0
96 2 32 24.499 7.62612 2 0 0 0
97 1 33 26.848 8.212 2 0 0 0
98 2 33 26.091 7.62612 2 0 0 0
99 2 33 27.605 7.62612 2 0 0 0
100 1 34 29.954 8.212 2 0 0 0
101 2 34 29.197 7.62612 2 0 0 0
102 2 34 30.711 7.62612 2 0 0 0
103 1 35 33.06 8.212 2 0 0 0
104 2 35 32.303 7.62612 2 0 0 0
105 2 35 33.817 7.62612 2 0 0 0
106 1 36 36.166 8.212 2 0 0 0
107 2 36 35.409 7.62612 2 0 0 0
108 2 36 36.923 7.62612 2 0 0 0
109 1 37 2 11.318 2 0 0 0
110 2 37 1.24305 10.7321 2 0 0 0
111 2 37 2.75695 10.7321 2 0 0 0
112 1 38 5.106 11.318 2 0 0 0
113 2 38 4.34905 10.7321 2 0 0 0
114 2 38 5.86295 10.7321 2 0 0 0
115 1 39 8.212 11.318 2 0 0 0
116 2 39 7.45505 10.7321 2 0 0 0
117 2 39 8.96895 10.7321 2 0 0 0
118 1 40 11.318 11.318 2 0 0 0
119 2 40 10.561 10.7321 2 0 0 0
120 2 40 12.075 10.7321 2 0 0 0
121 1 41 14.424 11.318 2 0 0 0
122 2 41 13.667 10.7321 2 0 0 0
123 2 41 15.181 10.7321 2 0 0 0
124 1 42 17.53 11.318 2 0 0 0
125 2 42 16.773 10.7321 2 0 0 0
126 2 42 18.287 10.7321 2 0 0 0
127 1 43 20.636 11.318 2 0 0 0
128 2 43 19.879 10.7321 2 0 0 0
129 2 43 21.393 10.7321 2 0 0 0
130 1 44 23.742 11.318 2 0 0 0
131 2 44 22.985 10.7321 2 0 0 0
132 2 44 24.499 10.7321 2 0 0 0
133 1 45 26.848 11.318 2 0 0 0
134 2 45 26.091 10.7321 2 0 0 0
135 2 45 27.605 10.7321 2 0 0 0
136 1 46 29.954 11.318 2 0 0 0
137 2 46 29.197 10.7321 2 0 0 0
138 2 46 30.711 10.7321 2 0 0 0
139 1 47 33.06 11.318 2 0 0 0
140 2 47 32.303 10.7321 2 0 0 0
141 2 47 33.817 10.7321 2 0 0 0
142 1 48 36.166 11.318 2 0 0 0
143 2 48 35.409 10.7321 2 0 0 0
144 2 48 36.923 10.7321 2 0 0 0
145 1 49 2 14.424 2 0 0 0
146 2 49 1.24305 13.8381 2 0 0 0
147 2 49 2.75695 13.8381 2 0 0 0
148 1 50 5.106 14.424 2 0 0 0
149 2 50 4.34905 13.8381 2 0 0 0
150 2 50 5.86295 13.8381 2 0 0 0
151 1 51 8.212 14.424 2 0 0 0
152 2 51 7.45505 13.8381 2 0 0 0
153 2 51 8.96895 13.8381 2 0 0 0
154 1 52 11.318 14.424 2 0 0 0
155 2 52 10.561 13.8381 2 0 0 0
156 2 52 12.075 13.8381 2 0 0 0
157 1 53 14.424 14.424 2 0 0 0
158 2 53 13.667 13.8381 2 0 0 0
159 2 53 15.181 13.8381 2 0 0 0
160 1 54 17.53 14.424 2 0 0 0
161 2 54 16.773 13.8381 2 0 0 0
162 2 54 18.287 13.8381 2 0 0 0
163 1 55 20.636 14.424 2 0 0 0
164 2 55 19.879 13.8381 2 0 0 0
165 2 55 21.393 13.8381 2 0 0 0
166 1 56 23.742 14.424 2 0 0 0
167 2 56 22.985 13.8381 2 0 0 0
168 2 56 24.499 13.8381 2 0 0 0
169 1 57 26.848 14.424 2 0 0 0
170 2 57 26.091 13.8381 2 0 0 0
171 2 57 27.605 13.8381 2 0 0 0
172 1 58 29.954 14.424 2 0 0 0
173 2 58 29.197 13.8381 2 0 0 0
174 2 58 30.711 13.8381 2 0 0 0
175 1 59 33.06 14.424 2 0 0 0
176 2 59 32.303 13.8381 2 0 0 0
177 2 59 33.817 13.8381 2 0 0 0
178 1 60 36.166 14.424 2 0 0 0
179 2 60 35.409 13.8381 2 0 0 0
180 2 60 36.923 13.8381 2 0 0 0
181 1 61 2 17.53 2 0 0 0
182 2 61 1.24305 16.9441 2 0 0 0
183 2 61 2.75695 16.9441 2 0 0 0
184 1 62 5.106 17.53 2 0 0 0
185 2 62 4.34905 16.9441 2 0 0 0
186 2 62 5.86295 16.9441 2 0 0 0
187 1 63 8.212 17.53 2 0 0 0
188 2 63 7.45505 16.9441 2 0 0 0
189 2 63 8.96895 16.9441 2 0 0 0
190 1 64 11.318 17.53 2 0 0 0
191 2 64 10.561 16.9441 2 0 0 0
192 2 64 12.075 16.9441 2 0 0 0
193 1 65 14.424 17.53 2 0 0 0
194 2 65 13.667 16.9441 2 0 0 0
195 2 65 15.181 16.9441 2 0 0 0
196 1 66 17.53 17.53 2 0 0 0
197 2 66 16.773 16.9441 2 0 0 0
198 2 66 18.287 16.9441 2 0 0 0
199 1 67 20.636 17.53 2 0 0 0
200 2 67 19.879 16.9441 2 0 0 0
201 2 67 21.393 16.9441 2 0 0 0
202 1 68 23.742 17.53 2 0 0 0
203 2 68 22.985 16.9441 2 0 0 0
204 2 68 24.499 16.9441 2 0 0 0
205 1 69 26.848 17.53 2 0 0 0
206 2 69 26.091 16.9441 2 0 0 0
207 2 69 27.605 16.9441 2 0 0 0
208 1 70 29.954 17.53 2 0 0 0
209 2 70 29.197 16.9441 2 0 0 0
210 2 70 30.711 16.9441 2 0 0 0
211 1 71 33.06 17.53 2 0 0 0
212 2 71 32.303 16.9441 2 0 0 0
213 2 71 33.817 16.9441 2 0 0 0
214 1 72 36.166 17.53 2 0 0 0
215 2 72 35.409 16.9441 2 0 0 0
216 2 72 36.923 16.9441 2 0 0 0
217 1 73 2 20.636 2 0 0 0
218 2 73 1.24305 20.0501 2 0 0 0
219 2 73 2.75695 20.0501 2 0 0 0
220 1 74 5.106 20.636 2 0 0 0
221 2 74 4.34905 20.0501 2 0 0 0
222 2 74 5.86295 20.0501 2 0 0 0
223 1 75 8.212 20.636 2 0 0 0
224 2 75 7.45505 20.0501 2 0 0 0
225 2 75 8.96895 20.0501 2 0 0 0
226 1 76 11.318 20.636 2 0 0 0
227 2 76 10.561 20.0501 2 0 0 0
228 2 76 12.075 20.0501 2 0 0 0
229 1 77 14.424 20.636 2 0 0 0
230 2 77 13.667 20.0501 2 0 0 0
231 2 77 15.181 20.0501 2 0 0 0
232 1 78 17.53 20.636 2 0 0 0
233 2 78 16.773 20.0501 2 0 0 0
234 2 78 18.287 20.0501 2 0 0 0
235 1 79 20.636 20.636 2 0 0 0
236 2 79 19.879 20.0501 2 0 0 0
237 2 79 21.393 20.0501 2 0 0 0
238 1 80 23.742 20.636 2 0 0 0
239 2 80 22.985 20.0501 2 0 0 0
240 2 80 24.499 20.0501 2 0 0 0
241 1 81 26.848 20.636 2 0 0 0
242 2 81 26.091 20.0501 2 0 0 0
243 2 81 27.605 20.0501 2 0 0 0
244 1 82 29.954 20.636 2 0 0 0
245 2 82 29.197 20.0501 2 0 0 0
246 2 82 30.711 20.0501 2 0 0 0
247 1 83 33.06 20.636 2 0 0 0
248 2 83 32.303 20.0501 2 0 0 0
249 2 83 33.817 20.0501 2 0 0 0
250 1 84 36.166 20.636 2 0 0 0
251 2 84 35.409 20.0501 2 0 0 0
252 2 84 36.923 20.0501 2 0 0 0
253 1 85 2 23.742 2 0 0 0
254 2 85 1.24305 23.1561 2 0 0 0
255 2 85 2.75695 23.1561 2 0 0 0
256 1 86 5.106 23.742 2 0 0 0
257 2 86 4.34905 23.1561 2 0 0 0
258 2 86 5.86295 23.1561 2 0 0 0
259 1 87 8.212 23.742 2 0 0 0
260 2 87 7.45505 23.1561 2 0 0 0
261 2 87 8.96895 23.1561 2 0 0 0
262 1 88 11.318 23.742 2 0 0 0
263 2 88 10.561 23.1561 2 0 0 0
264 2 88 12.075 23.1561 2 0 0 0
265 1 89 14.424 23.742 2 0 0 0
266 2 89 13.667 23.1561 2 0 0 0
267 2 89 15.181 23.1561 2 0 0 0
268 1 90 17.53 23.742 2 0 0 0
269 2 90 16.773 23.1561 2 0 0 0
270 2 90 18.287 23.1561 2 0 0 0
271 1 91 20.636 23.742 2 0 0 0
272 2 91 19.879 23.1561 2 0 0 0
273 2 91 21.393 23.1561 2 0 0 0
274 1 92 23.742 23.742 2 0 0 0
275 2 92 22.985 23.1561 2 0 0 0
276 2 92 24.499 23.1561 2 0 0 0
277 1 93 26.848 23.742 2 0 0 0
278 2 93 26.091 23.1561 2 0 0 0
279 2 93 27.605 23.1561 2 0 0 0
280 1 94 29.954 23.742 2 0 0 0
281 2 94 29.197 23.1561 2 0 0 0
282 2 94 30.711 23.1561 2 0 0 0
283 1 95 33.06 23.742 2 0 0 0
284 2 95 32.303 23.1561 2 0 0 0
285 2 95 33.817 23.1561 2 0 0 0
286 1 96 36.166 23.742 2 0 0 0
287 2 96 35.409 23.1561 2 0 0 0
288 2 96 36.923 23.1561 2 0 0 0
289 1 97 2 26.848 2 0 0 0
290 2 97 1.24305 26.2621 2 0 0 0
291 2 97 2.75695 26.2621 2 0 0 0
292 1 98 5.106 26.848 2 0 0 0
293 2 98 4.34905 26.2621 2 0 0 0
294 2 98 5.86295 26.2621 2 0 0 0
295 1 99 8.212 26.848 2 0 0 0
296 2 99 7.45505 26.2621 2 0 0 0
297 2 99 8.96895 26.2621 2 0 0 0
298 1 100 11.318 26.848 2 0 0 0
299 2 100 10.561 26.2621 2 0 0 0
300 2 100 12.075 26.2621 2 0 0 0
301 1 101 14.424 26.848 2 0 0 0
302 2 101 13.667 26.2621 2 0 0 0
303 2 101 15.181 26.2621 2 0 0 0
304 1 102 17.53 26.848 2 0 0 0
305 2 102 16.773 26.2621 2 0 0 0
306 2 102 18.287 26.2621 2 0 0 0
307 1 103 20.636 26.848 2 0 0 0
308 2 103 19.879 26.2621 2 0 0 0
309 2 103 21.393 26.2621 2 0 0 0
310 1 104 23.742 26.848 2 0 0 0
311 2 104 22.985 26.2621 2 0 0 0
312 2 104 24.499 26.2621 2 0 0 0
313 1 105 26.848 26.848 2 0 0 0
314 2 105 26.091 26.2621 2 0 0 0
315 2 105 27.605 26.2621 2 0 0 0
316 1 106 29.954 26.848 2 0 0 0
317 2 106 29.197 26.2621 2 0 0 0
318 2 106 30.711 26.2621 2 0 0 0
319 1 107 33.06 26.848 2 0 0 0
320 2 107 32.303 26.2621 2 0 0 0
321 2 107 33.817 26.2621 2 0 0 0
322 1 108 36.166 26.848 2 0 0 0
323 2 108 35.409 26.2621 2 0 0 0
324 2 108 36.923 26.2621 2 0 0 0
325 1 109 2 29.954 2 0 0 0
326 2 109 1.24305 29.3681 2 0 0 0
327 2 109 2.75695 29.3681 2 0 0 0
328 1 110 5.106 29.954 2 0 0 0
329 2 110 4.34905 29.3681 2 0 0 0
330 2 110 5.86295 29.3681 2 0 0 0
331 1 111 8.212 29.954 2 0 0 0
332 2 111 7.45505 29.3681 2 0 0 0
333 2 111 8.96895 29.3681 2 0 0 0
334 1 112 11.318 29.954 2 0 0 0
335 2 112 10.561 29.3681 2 0 0 0
336 2 112 12.075 29.3681 2 0 0 0
337 1 113 14.424 29.954 2 0 0 0
338 2 113 13.667 29.3681 2 0 0 0
339 2 113 15.181 29.3681 2 0 0 0
340 1 114 17.53 29.954 2 0 0 0
341 2 114 16.773 29.3681 2 0 0 0
342 2 114 18.287 29.3681 2 0 0 0
343 1 115 20.636 29.954 2 0 0 0
344 2 115 19.879 29.3681 2 0 0 0
345 2 115 21.393 29.3681 2 0 0 0
346 1 116 23.742 29.954 2 0 0 0
347 2 116 22.985 29.3681 2 0 0 0
348 2 116 24.499 29.3681 2 0 0 0
349 1 117 26.848 29.954 2 0 0 0
350 2 117 26.091 29.3681 2 0 0 0
351 2 117 27.605 29.3681 2 0 0 0
352 1 118 29.954 29.954 2 0 0 0
353 2 118 29.197 29.3681 2 0 0 0
354 2 118 30.711 29.3681 2 0 0 0
355 1 119 33.06 29.954 2 0 0 0
356 2 119 32.303 29.3681 2 0 0 0
357 2 119 33.817 29.3681 2 0 0 0
358 1 120 36.166 29.954 2 0 0 0
359 2 120 35.409 29.3681 2 0 0 0
360 2 120 36.923 29.3681 2 0 0 0
361 1 121 2 33.06 2 0 0 0
362 2 121 1.24305 32.4741 2 0 0 0
363 2 121 2.75695 32.4741 2 0 0 0
364 1 122 5.106 33.06 2 0 0 0
365 2 122 4.34905 32.4741 2 0 0 0
366 2 122 5.86295 32.4741 2 0 0 0
367 1 123 8.212 33.06 2 0 0 0
368 2 123 7.45505 32.4741 2 0 0 0
369 2 123 8.96895 32.4741 2 0 0 0
370 1 124 11.318 33.06 2 0 0 0
371 2 124 10.561 32.4741 2 0 0 0
372 2 124 12.075 32.4741 2 0 0 0
373 1 125 14.424 33.06 2 0 0 0
374 2 125 13.667 32.4741 2 0 0 0
375 2 125 15.181 32.4741 2 0 0 0
376 1 126 17.53 33.06 2 0 0 0
377 2 126 16.773 32.4741 2 0 0 0
378 2 126 18.287 32.4741 2 0 0 0
379 1 127 20.636 33.06 2 0 0 0
380 2 127 19.879 32.4741 2 0 0 0
381 2 127 21.393 32.4741 2 0 0 0
382 1 128 23.742 33.06 2 0 0 0
383 2 128 22.985 32.4741 2 0 0 0
384 2 128 24.499 32.4741 2 0 0 0
385 1 129 26.848 33.06 2 0 0 0
386 2 129 26.091 32.4741 2 0 0 0
387 2 129 27.605 32.4741 2 0 0 0
388 1 130 29.954 33.06 2 0 0 0
389 2 130 29.197 32.4741 2 0 0 0
390 2 130 30.711 32.4741 2 0 0 0
391 1 131 33.06 33.06 2 0 0 0
392 2 131 32.303 32.4741 2 0 0 0
393 2 131 33.817 32.4741 2 0 0 0
394 1 132 36.166 33.06 2 0 0 0
395 2 132 35.409 32.4741 2 0 0 0
396 2 132 36.923 32.4741 2 0 0 0
397 1 133 2 36.166 2 0 0 0
398 2 133 1.24305 35.5801 2 0 0 0
399 2 133 2.75695 35.5801 2 0 0 0
400 1 134 5.106 36.166 2 0 0 0
401 2 134 4.34905 35.5801 2 0 0 0
402 2 134 5.86295 35.5801 2 0 0 0
403 1 135 8.212 36.166 2 0 0 0
404 2 135 7.45505 35.5801 2 0 0 0
405 2 135 8.96895 35.5801 2 0 0 0
406 1 136 11.318 36.166 2 0 0 0
407 2 136 10.561 35.5801 2 0 0 0
408 2 136 12.075 35.5801 2 0 0 0
409 1 137 14.424 36.166 2 0 0 0
410 2 137 13.667 35.5801 2 0 0 0
411 2 137 15.181 35.5801 2 0 0 0
412 1 138 17.53 36.166 2 0 0 0
413 2 138 16.773 35.5801 2 0 0 0
414 2 138 18.287 35.5801 2 0 0 0
415 1 139 20.636 36.166 2 0 0 0
416 2 139 19.879 35.5801 2 0 0 0
417 2 139 21.393 35.5801 2 0 0 0
418 1 140 23.742 36.166 2 0 0 0
419 2 140 22.985 35.5801 2 0 0 0
420 2 140 24.499 35.5801 2 0 0 0
421 1 141 26.848 36.166 2 0 0 0
422 2 141 26.091 35.5801 2 0 0 0
423 2 141 27.605 35.5801 2 0 0 0
424 1 142 29.954 36.166 2 0 0 0
425 2 142 29.197 35.5801 2 0 0 0
426 2 142 30.711 35.5801 2 0 0 0
427 1 143 33.06 36.166 2 0 0 0
428 2 143 32.303 35.5801 2 0 0 0
429 2 143 33.817 35.5801 2 0 0 0
430 1 144 36.166 36.166 2 0 0 0
431 2 144 35.409 35.5801 2 0 0 0
432 2 144 36.923 35.5801 2 0 0 0
433 1 145 2 2 5.106 0 0 0
434 2 145 1.24305 1.41412 5.106 0 0 0
435 2 145 2.75695 1.41412 5.106 0 0 0
436 1 146 5.106 2 5.106 0 0 0
437 2 146 4.34905 1.41412 5.106 0 0 0
438 2 146 5.86295 1.41412 5.106 0 0 0
439 1 147 8.212 2 5.106 0 0 0
440 2 147 7.45505 1.41412 5.106 0 0 0
441 2 147 8.96895 1.41412 5.106 0 0 0
442 1 148 11.318 2 5.106 0 0 0
443 2 148 10.561 1.41412 5.106 0 0 0
444 2 148 12.075 1.41412 5.106 0 0 0
445 1 149 14.424 2 5.106 0 0 0
446 2 149 13.667 1.41412 5.106 0 0 0
447 2 149 15.181 1.41412 5.106 0 0 0
448 1 150 17.53 2 5.106 0 0 0
449 2 150 16.773 1.41412 5.106 0 0 0
450 2 150 18.287 1.41412 5.106 0 0 0
451 1 151 20.636 2 5.106 0 0 0
452 2 151 19.879 1.41412 5.106 0 0 0
453 2 151 21.393 1.41412 5.106 0 0 0
454 1 152 23.742 2 5.106 0 0 0
455 2 152 22.985 1.41412 5.106 0 0 0
456 2 152 24.499 1.41412 5.106 0 0 0
457 1 153 26.848 2 5.106 0 0 0
458 2 153 26.091 1.41412 5.106 0 0 0
459 2 153 27.605 1.41412 5.106 0 0 0
460 1 154 29.954 2 5.106 0 0 0
461 2 154 29.197 1.41412 5.106 0 0 0
462 2 154 30.711 1.41412 5.106 0 0 0
463 1 155 33.06 2 5.106 0 0 0
464 2 155 32.303 1.41412 5.106 0 0 0
465 2 155 33.817 1.41412 5.106 0 0 0
466 1 156 36.166 2 5.106 0 0 0
467 2 156 35.409 1.41412 5.106 0 0 0
468 2 156 36.923 1.41412 5.106 0 0 0
469 1 157 2 5.106 5.106 0 0 0
470 2 157 1.24305 4.52012 5.106 0 0 0
471 2 157 2.75695 4.52012 5.106 0 0 0
472 1 158 5.106 5.106 5.106 0 0 0
473 2 158 4.34905 4.52012 5.106 0 0 0
474 2 158 5.86295 4.52012 5.106 0 0 0
475 1 159 8.212 5.106 5.106 0 0 0
476 2 159 7.45505 4.52012 5.106 0 0 0
477 2 159 8.96895 4.52012 5.106 0 0 0
478 1 160 11.318 5.106 5.106 0 0 0
479 2 160 10.561 4.52012 5.106 0 0 0
480 2 160 12.075 4.52012 5.106 0 0 0
481 1 161 14.424 5.106 5.106 0 0 0
482 2 161 13.667 4.52012 5.106 0 0 0
483 2 161 15.181 4.52012 5.106 0 0 0
484 1 162 17.53 5.106 5.106 0 0 0
485 2 162 16.773 4.52012 5.106 0 0 0
486 2 162 18.287 4.52012 5.106 0 0 0
487 1 163 20.636 5.106 5.106 0 0 0
488 2 163 19.879 4.52012 5.106 0 0 0
489 2 163 21.393 4.52012 5.106 0 0 0
490 1 164 23.742 5.106 5.106 0 0 0
491 2 164 22.985 4.52012 5.106 0 0 0
492 2 164 24.499 4.52012 5.106 0 0 0
493 1 165 26.848 5.106 5.106 0 0 0
494 2 165 26.091 4.52012 5.106 0 0 0
495 2 165 27.605 4.52012 5.106 0 0 0
496 1 166 29.954 5.106 5.106 0 0 0
497 2 166 29.197 4.52012 5.106 0 0 0
498 2 166 30.711 4.52012 5.106 0 0 0
499 1 167 33.06 5.106 5.106 0 0 0
500 2 167 32.303 4.52012 5.106 0 0 0
501 2 167 33.817 4.52012 5.106 0 0 0
502 1 168 36.166 5.106 5.106 0 0 0
503 2 168 35.409 4.52012 5.106 0 0 0
504 2 168 36.923 4.52012 5.106 0 0 0
505 1 169 2 8.212 5.106 0 0 0
506 2 169 1.24305 7.62612 5.106 0 0 0
507 2 169 2.75695 7.62612 5.106 0 0 0
508 1 170 5.106 8.212 5.106 0 0 0
509 2 170 4.34905 7.62612 5.106 0 0 0
510 2 170 5.86295 7.62612 5.106 0 0 0
511 1 171 8.212 8.212 5.106 0 0 0
512 2 171 7.45505 7.62612 5.106 0 0 0
513 2 171 8.96895 7.62612 5.106 0 0 0
514 1 172 11.318 8.212 5.106 0 0 0
515 2 172 10.561 7.62612 5.106 0 0 0
516 2 172 12.075 7.62612 5.106 0 0 0
517 1 173 14.424 8.212 5.106 0 0 0
518 2 173 13.667 7.62612 5.106 0 0 0
519 2 173 15.181 7.62612 5.106 0 0 0
520 1 174 17.53 8.212 5.106 0 0 0
521 2 174 16.773 7.62612 5.106 0 0 0
522 2 174 18.287 7.62612 5.106 0 0 0
523 1 175 20.636 8.212 5.106 0 0 0
524 2 175 19.879 7.62612 5.106 0 0 0
525 2 175 21.393 7.62612 5.106 0 0 0
526 1 176 23.742 8.212 5.106 0 0 0
527 2 176 22.985 7.62612 5.106 0 0 0
528 2 176 24.499 7.62612 5.106 0 0 0
529 1 177 26.848 8.212 5.106 0 0 0
530 2 177 26.091 7.62612 5.106 0 0 0
531 2 177 27.605 7.62612 5.106 0 0 0
532 1 178 29.954 8.212 5.106 0 0 0
533 2 178 29.197 7.62612 5.106 0 0 0
534 2 178 30.711 7.62612 5.106 0 0 0
535 1 179 33.06 8.212 5.106 0 0 0
536 2 179 32.303 7.62612 5.106 0 0 0
537 2 179 33.817 7.62612 5.106 0 0 0
538 1 180 36.166 8.212 5.106 0 0 0
539 2 180 35.409 7.62612 5.106 0 0 0
540 2 180 36.923 7.62612 5.106 0 0 0
541 1 181 2 11.318 5.106 0 0 0
542 2 181 1.24305 10.7321 5.106 0 0 0
543 2 181 2.75695 10.7321 5.106 0 0 0
544 1 182 5.106 11.318 5.106 0 0 0
545 2 182 4.34905 10.7321 5.106 0 0 0
546 2 182 5.86295 10.7321 5.106 0 0 0
547 1 183 8.212 11.318 5.106 0 0 0
548 2 183 7.45505 10.7321 5.106 0 0 0
549 2 183 8.96895 10.7321 5.106 0 0 0
550 1 184 11.318 11.318 5.106 0 0 0
551 2 184 10.561 10.7321 5.106 0 0 0
552 2 184 12.075 10.7321 5.106 0 0 0
553 1 185 14.424 11.318 5.106 0 0 0
554 2 185 13.667 10.7321 5.106 0 0 0
555 2 185 15.181 10.7321 5.106 0 0 0
556 1 186 17.53 11.318 5.106 0 0 0
557 2 186 16.773 10.7321 5.106 0 0 0
558 2 186 18.287 10.7321 5.106 0 0 0
559 1 187 20.636 11.318 5.106 0 0 0
560 2 187 19.879 10.7321 5.106 0 0 0
561 2 187 21.393 10.7321 5.106 0 0 0
562 1 188 23.742 11.318 5.106 0 0 0
563 2 188 22.985 10.7321 5.106 0 0 0
564 2 188 24.499 10.7321 5.106 0 0 0
565 1 189 26.848 11.318 5.106 0 0 0
566 2 189 26.091 10.7321 5.106 0 0 0
567 2 189 27.605 10.7321 5.106 0 0 0
568 1 190 29.954 11.318 5.106 0 0 0
569 2 190 29.197 10.7321 5.106 0 0 0
570 2 190 30.711 10.7321 5.106 0 0 0
571 1 191 33.06 11.318 5.106 0 0 0
572 2 191 32.303 10.7321 5.106 0 0 0
573 2 191 33.817 10.7321 5.106 0 0 0
574 1 192 36.166 11.318 5.106 0 0 0
575 2 192 35.409 10.7321 5.106 0 0 0
576 2 192 36.923 10.7321 5.106 0 0 0
577 1 193 2 14.424 5.106 0 0 0
578 2 193 1.24305 13.8381 5.106 0 0 0
579 2 193 2.75695 13.8381 5.106 0 0 0
580 1 194 5.106 14.424 5.106 0 0 0
581 2 194 4.34905 13.8381 5.106 0 0 0
582 2 194 5.86295 13.8381 5.106 0 0 0
583 1 195 8.212 14.424 5.106 0 0 0
584 2 195 7.45505 13.8381 5.106 0 0 0
585 2 195 8.96895 13.8381 5.106 0 0 0
586 1 196 11.318 14.424 5.106 0 0 0
587 2 196 10.561 13.8381 5.106 0 0 0
588 2 196 12.075 13.8381 5.106 0 0 0
589 1 197 14.424 14.424 5.106 0 0 0
590 2 197 13.667 13.8381 5.106 0 0 0
591 2 197 15.181 13.8381 5.106 0 0 0
592 1 198 17.53 14.424 5.106 0 0 0
593 2 198 16.773 13.8381 5.106 0 0 0
594 2 198 18.287 13.8381 5.106 0 0 0
595 1 199 20.636 14.424 5.106 0 0 0
596 2 199 19.879 13.8381 5.106 0 0 0
597 2 199 21.393 13.8381 5.106 0 0 0
598 1 200 23.742 14.424 5.106 0 0 0
599 2 200 22.985 13.8381 5.106 0 0 0
600 2 200 24.499 13.8381 5.106 0 0 0
601 1 201 26.848 14.424 5.106 0 0 0
602 2 201 26.091 13.8381 5.106 0 0 0
603 2 201 27.605 13.8381 5.106 0 0 0
604 1 202 29.954 14.424 5.106 0 0 0
605 2 202 29.197 13.8381 5.106 0 0 0
606 2 202 30.711 13.8381 5.106 0 0 0
607 1 203 33.06 14.424 5.106 0 0 0
608 2 203 32.303 13.8381 5.106 0 0 0
609 2 203 33.817 13.8381 5.106 0 0 0
610 1 204 36.166 14.424 5.106 0 0 0
611 2 204 35.409 13.8381 5.106 0 0 0
612 2 204 36.923 13.8381 5.106 0 0 0
613 1 205 2 17.53 5.106 0 0 0
614 2 205 1.24305 16.9441 5.106 0 0 0
615 2 205 2.75695 16.9441 5.106 0 0 0
616 1 206 5.106 17.53 5.106 0 0 0
617 2 206 4.34905 16.9441 5.106 0 0 0
618 2 206 5.86295 16.9441 5.106 0 0 0
619 1 207 8.212 17.53 5.106 0 0 0
620 2 207 7.45505 16.9441 5.106 0 0 0
621 2 207 8.96895 16.9441 5.106 0 0 0
622 1 208 11.318 17.53 5.106 0 0 0
623 2 208 10.561 16.9441 5.106 0 0 0
624 2 208 12.075 16.9441 5.106 0 0 0
625 1 209 14.424 17.53 5.106 0 0 0
626 2 209 13.667 16.9441 5.106 0 0 0
627 2 209 15.181 16.9441 5.106 0 0 0
628 1 210 17.53 17.53 5.106 0 0 0
629 2 210 16.773 16.9441 5.106 0 0 0
630 2 210 18.287 16.9441 5.106 0 0 0
631 1 211 20.636 17.53 5.106 0 0 0
632 2 211 19.879 16.9441 5.106 0 0 0
633 2 211 21.393 16.9441 5.106 0 0 0
634 1 212 23.742 17.53 5.106 0 0 0
635 2 212 22.985 16.9441 5.106 0 0 0
636 2 212 24.499 16.9441 5.106 0 0 0
637 1 213 26.848 17.53 5.106 0 0 0
638 2 213 26.091 16.9441 5.106 0 0 0
639 2 213 27.605 16.9441 5.106 0 0 0
640 1 214 29.954 17.53 5.106 0 0 0
641 2 214 29.197 16.9441 5.106 0 0 0
642 2 214 30.711 16.9441 5.106 0 0 0
643 1 215 33.06 17.53 5.106 0 0 0
644 2 215 32.303 16.9441 5.106 0 0 0
645 2 215 33.817 16.9441 5.106 0 0 0
646 1 216 36.166 17.53 5.106 0 0 0
647 2 216 35.409 16.9441 5.106 0 0 0
648 2 216 36.923 16.9441 5.106 0 0 0
649 1 217 2 20.636 5.106 0 0 0
650 2 217 1.24305 20.0501 5.106 0 0 0
651 2 217 2.75695 20.0501 5.106 0 0 0
652 1 218 5.106 20.636 5.106 0 0 0
653 2 218 4.34905 20.0501 5.106 0 0 0
654 2 218 5.86295 20.0501 5.106 0 0 0
655 1 219 8.212 20.636 5.106 0 0 0
656 2 219 7.45505 20.0501 5.106 0 0 0
657 2 219 8.96895 20.0501 5.106 0 0 0
658 1 220 11.318 20.636 5.106 0 0 0
659 2 220 10.561 20.0501 5.106 0 0 0
660 2 220 12.075 20.0501 5.106 0 0 0
661 1 221 14.424 20.636 5.106 0 0 0
662 2 221 13.667 20.0501 5.106 0 0 0
663 2 221 15.181 20.0501 5.106 0 0 0
664 1 222 17.53 20.636 5.106 0 0 0
665 2 222 16.773 20.0501 5.106 0 0 0
666 2 222 18.287 20.0501 5.106 0 0 0
667 1 223 20.636 20.636 5.106 0 0 0
668 2 223 19.879 20.0501 5.106 0 0 0
669 2 223 21.393 20.0501 5.106 0 0 0
670 1 224 23.742 20.636 5.106 0 0 0
671 2 224 22.985 20.0501 5.106 0 0 0
672 2 224 24.499 20.0501 5.106 0 0 0
673 1 225 26.848 20.636 5.106 0 0 0
674 2 225 26.091 20.0501 5.106 0 0 0
675 2 225 27.605 20.0501 5.106 0 0 0
676 1 226 29.954 20.636 5.106 0 0 0
677 2 226 29.197 20.0501 5.106 0 0 0
678 2 226 30.711 20.0501 5.106 0 0 0
679 1 227 33.06 20.636 5.106 0 0 0
680 2 227 32.303 20.0501 5.106 0 0 0
681 2 227 33.817 20.0501 5.106 0 0 0
682 1 228 36.166 20.636 5.106 0 0 0
683 2 228 35.409 20.0501 5.106 0 0 0
684 2 228 36.923 20.0501 5.106 0 0 0
685 1 229 2 23.742 5.106 0 0 0
686 2 229 1.24305 23.1561 5.106 0 0 0
687 2 229 2.75695 23.1561 5.106 0 0 0
688 1 230 5.106 23.742 5.106 0 0 0
689 2 230 4.34905 23.1561 5.106 0 0 0
690 2 230 5.86295 23.1561 5.106 0 0 0
691 1 231 8.212 23.742 5.106 0 0 0
692 2 231 7.45505 23.1561 5.106 0 0 0
693 2 231 8.96895 23.1561 5.106 0 0 0
694 1 232 11.318 23.742 5.106 0 0 0
695 2 232 10.561 23.1561 5.106 0 0 0
696 2 232 12.075 23.1561 5.106 0 0 0
697 1 233 14.424 23.742 5.106 0 0 0
698 2 233 13.667 23.1561 5.106 0 0 0
699 2 233 15.181 23.1561 5.106 0 0 0
700 1 234 17.53 23.742 5.106 0 0 0
701 2 234 16.773 23.1561 5.106 0 0 0
702 2 234 18.287 23.1561 5.106 0 0 0
703 1 235 20.636 23.742 5.106 0 0 0
704 2 235 19.879 23.1561 5.106 0 0 0
705 2 235 21.393 23.1561 5.106 0 0 0
706 1 236 23.742 23.742 5.106 0 0 0
707 2 236 22.985 23.1561 5.106 0 0 0
708 2 236 24.499 23.1561 5.106 0 0 0
709 1 237 26.848 23.742 5.106 0 0 0
710 2 237 26.091 23.1561 5.106 0 0 0
711 2 237 27.605 23.1561 5.106 0 0 0
712 1 238 29.954 23.742 5.106 0 0 0
713 2 238 29.197 23.1561 5.106 0 0 0
714 2 238 30.711 23.1561 5.106 0 0 0
715 1 239 33.06 23.742 5.106 0 0 0
716 2 239 32.303 23.1561 5.106 0 0 0
717 2 239 33.817 23.1561 5.106 0 0 0
718 1 240 36.166 23.742 5.106 0 0 0
719 2 240 35.409 23.1561 5.106 0 0 0
720 2 240 36.923 23.1561 5.106 0 0 0
721 1 241 2 26.848 5.106 0 0 0
722 2 241 1.24305 26.2621 5.106 0 0 0
723 2 241 2.75695 26.2621 5.106 0 0 0
724 1 242 5.106 26.848 5.106 0 0 0
725 2 242 4.34905 26.2621 5.106 0 0 0
726 2 242 5.86295 26.2621 5.106 0 0 0
727 1 243 8.212 26.848 5.106 0 0 0
728 2 243 7.45505 26.2621 5.106 0 0 0
729 2 243 8.96895 26.2621 5.106 0 0 0
730 1 244 11.318 26.848 5.106 0 0 0
731 2 244 10.561 26.2621 5.106 0 0 0
732 2 244 12.075 26.2621 5.106 0 0 0
733 1 245 14.424 26.848 5.106 0 0 0
734 2 245 13.667 26.2621 5.106 0 0 0
735 2 245 15.181 26.2621 5.106 0 0 0
736 1 246 17.53 26.848 5.106 0 0 0
737 2 246 16.773 26.2621 5.106 0 0 0
738 2 246 18.287 26.2621 5.106 0 0 0
739 1 247 20.636 26.848 5.106 0 0 0
740 2 247 19.879 26.2621 5.106 0 0 0
741 2 247 21.393 26.2621 5.106 0 0 0
742 1 248 23.742 26.848 5.106 0 0 0
743 2 248 22.985 26.2621 5.106 0 0 0
744 2 248 24.499 26.2621 5.106 0 0 0
745 1 249 26.848 26.848 5.106 0 0 0
746 2 249 26.091 26.2621 5.106 0 0 0
747 2 249 27.605 26.2621 5.106 0 0 0
748 1 250 29.954 26.848 5.106 0 0 0
749 2 250 29.197 26.2621 5.106 0 0 0
750 2 250 30.711 26.2621 5.106 0 0 0
751 1 251 33.06 26.848 5.106 0 0 0
752 2 251 32.303 26.2621 5.106 0 0 0
753 2 251 33.817 26.2621 5.106 0 0 0
754 1 252 36.166 26.848 5.106 0 0 0
755 2 252 35.409 26.2621 5.106 0 0 0
756 2 252 36.923 26.2621 5.106 0 0 0
757 1 253 2 29.954 5.106 0 0 0
758 2 253 1.24305 29.3681 5.106 0 0 0
759 2 253 2.75695 29.3681 5.106 0 0 0
760 1 254 5.106 29.954 5.106 0 0 0
761 2 254 4.34905 29.3681 5.106 0 0 0
762 2 254 5.86295 29.3681 5.106 0 0 0
763 1 255 8.212 29.954 5.106 0 0 0
764 2 255 7.45505 29.3681 5.106 0 0 0
765 2 255 8.96895 29.3681 5.106 0 0 0
766 1 256 11.318 29.954 5.106 0 0 0
767 2 256 10.561 29.3681 5.106 0 0 0
768 2 256 12.075 29.3681 5.106 0 0 0
769 1 257 14.424 29.954 5.106 0 0 0
770 2 257 13.667 29.3681 5.106 0 0 0
771 2 257 15.181 29.3681 5.106 0 0 0
772 1 258 17.53 29.954 5.106 0 0 0
773 2 258 16.773 29.3681 5.106 0 0 0
774 2 258 18.287 29.3681 5.106 0 0 0
775 1 259 20.636 29.954 5.106 0 0 0
776 2 259 19.879 29.3681 5.106 0 0 0
777 2 259 21.393 29.3681 5.106 0 0 0
778 1 260 23.742 29.954 5.106 0 0 0
779 2 260 22.985 29.3681 5.106 0 0 0
780 2 260 24.499 29.3681 5.106 0 0 0
781 1 261 26.848 29.954 5.106 0 0 0
782 2 261 26.091 29.3681 5.106 0 0 0
783 2 261 27.605 29.3681 5.106 0 0 0
784 1 262 29.954 29.954 5.106 0 0 0
785 2 262 29.197 29.3681 5.106 0 0 0
786 2 262 30.711 29.3681 5.106 0 0 0
787 1 263 33.06 29.954 5.106 0 0 0
788 2 263 32.303 29.3681 5.106 0 0 0
789 2 263 33.817 29.3681 5.106 0 0 0
790 1 264 36.166 29.954 5.106 0 0 0
791 2 264 35.409 29.3681 5.106 0 0 0
792 2 264 36.923 29.3681 5.106 0 0 0
793 1 265 2 33.06 5.106 0 0 0
794 2 265 1.24305 32.4741 5.106 0 0 0
795 2 265 2.75695 32.4741 5.106 0 0 0
796 1 266 5.106 33.06 5.106 0 0 0
797 2 266 4.34905 32.4741 5.106 0 0 0
798 2 266 5.86295 32.4741 5.106 0 0 0
799 1 267 8.212 33.06 5.106 0 0 0
800 2 267 7.45505 32.4741 5.106 0 0 0
801 2 267 8.96895 32.4741 5.106 0 0 0
802 1 268 11.318 33.06 5.106 0 0 0
803 2 268 10.561 32.4741 5.106 0 0 0
804 2 268 12.075 32.4741 5.106 0 0 0
805 1 269 14.424 33.06 5.106 0 0 0
806 2 269 13.667 32.4741 5.106 0 0 0
807 2 269 15.181 32.4741 5.106 0 0 0
808 1 270 17.53 33.06 5.106 0 0 0
809 2 270 16.773 32.4741 5.106 0 0 0
810 2 270 18.287 32.4741 5.106 0 0 0
811 1 271 20.636 33.06 5.106 0 0 0
812 2 271 19.879 32.4741 5.106 0 0 0
813 2 271 21.393 32.4741 5.106 0 0 0
814 1 272 23.742 33.06 5.106 0 0 0
815 2 272 22.985 32.4741 5.106 0 0 0
816 2 272 24.499 32.4741 5.106 0 0 0
817 1 273 26.848 33.06 5.106 0 0 0
818 2 273 26.091 32.4741 5.106 0 0 0
819 2 273 27.605 32.4741 5.106 0 0 0
820 1 274 29.954 33.06 5.106 0 0 0
821 2 274 29.197 32.4741 5.106 0 0 0
822 2 274 30.711 32.4741 5.106 0 0 0
823 1 275 33.06 33.06 5.106 0 0 0
824 2 275 32.303 32.4741 5.106 0 0 0
825 2 275 33.817 32.4741 5.106 0 0 0
826 1 276 36.166 33.06 5.106 0 0 0
827 2 276 35.409 32.4741 5.106 0 0 0
828 2 276 36.923 32.4741 5.106 0 0 0
829 1 277 2 36.166 5.106 0 0 0
830 2 277 1.24305 35.5801 5.106 0 0 0
831 2 277 2.75695 35.5801 5.106 0 0 0
832 1 278 5.106 36.166 5.106 0 0 0
833 2 278 4.34905 35.5801 5.106 0 0 0
834 2 278 5.86295 35.5801 5.106 0 0 0
835 1 279 8.212 36.166 5.106 0 0 0
836 2 279 7.45505 35.5801 5.106 0 0 0
837 2 279 8.96895 35.5801 5.106 0 0 0
838 1 280 11.318 36.166 5.106 0 0 0
839 2 280 10.561 35.5801 5.106 0 0 0
840 2 280 12.075 35.5801 5.106 0 0 0
841 1 281 14.424 36.166 5.106 0 0 0
842 2 281 13.667 35.5801 5.106 0 0 0
843 2 281 15.181 35.5801 5.106 0 0 0
844 1 282 17.53 36.166 5.106 0 0 0
845 2 282 16.773 35.5801 5.106 0 0 0
846 2 282 18.287 35.5801 5.106 0 0 0
847 1 283 20.636 36.166 5.106 0 0 0
848 2 283 19.879 35.5801 5.106 0 0 0
849 2 283 21.393 35.5801 5.106 0 0 0
850 1 284 23.742 36.166 5.106 0 0 0
851 2 284 22.985 35.5801 5.106 0 0 0
852 2 284 24.499 35.5801 5.106 0 0 0
853 1 285 26.848 36.166 5.106 0 0 0
854 2 285 26.091 35.5801 5.106 0 0 0
855 2 285 27.605 35.5801 5.106 0 0 0
856 1 286 29.954 36.166 5.106 0 0 0
857 2 286 29.197 35.5801 5.106 0 0 0
858 2 286 30.711 35.5801 5.106 0 0 0
859 1 287 33.06 36.166 5.106 0 0 0
860 2 287 32.303 35.5801 5.106 0 0 0
861 2 287 33.817 35.5801 5.106 0 0 0
862 1 288 36.166 36.166 5.106 0 0 0
863 2 288 35.409 35.5801 5.106 0 0 0
864 2 288 36.923 35.5801 5.106 0 0 0
865 1 289 2 2 8.212 0 0 0
866 2 289 1.24305 1.41412 8.212 0 0 0
867 2 289 2.75695 1.41412 8.212 0 0 0
868 1 290 5.106 2 8.212 0 0 0
869 2 290 4.34905 1.41412 8.212 0 0 0
870 2 290 5.86295 1.41412 8.212 0 0 0
871 1 291 8.212 2 8.212 0 0 0
872 2 291 7.45505 1.41412 8.212 0 0 0
873 2 291 8.96895 1.41412 8.212 0 0 0
874 1 292 11.318 2 8.212 0 0 0
875 2 292 10.561 1.41412 8.212 0 0 0
876 2 292 12.075 1.41412 8.212 0 0 0
877 1 293 14.424 2 8.212 0 0 0
878 2 293 13.667 1.41412 8.212 0 0 0