ITEM: TIMESTEP
0
ITEM: NUMBER OF ATOMS
2187
ITEM: BOX BOUNDS pp pp pp
0.0000000000000000e+00 2.7954000000000001e+01
0.0000000000000000e+00 2.7954000000000001e+01
0.0000000000000000e+00 8.5000000000000000e+01
ITEM: ATOMS id type xs ys zs
1 1 0.0715461 0.0715461 0.0235294
2 2 0.0444677 0.0505873 0.0235294
3 2 0.0986245 0.0505873 0.0235294
4 1 0.182657 0.0715461 0.0235294
5 2 0.155579 0.0505873 0.0235294
6 2 0.209736 0.0505873 0.0235294
7 1 0.293768 0.0715461 0.0235294
8 2 0.26669 0.0505873 0.0235294
9 2 0.320847 0.0505873 0.0235294
10 1 0.404879 0.0715461 0.0235294
11 2 0.377801 0.0505873 0.0235294
12 2 0.431958 0.0505873 0.0235294
13 1 0.515991 0.0715461 0.0235294
14 2 0.488912 0.0505873 0.0235294
15 2 0.543069 0.0505873 0.0235294
16 1 0.627102 0.0715461 0.0235294
17 2 0.600023 0.0505873 0.0235294
18 2 0.65418 0.0505873 0.0235294
19 1 0.738213 0.0715461 0.0235294
20 2 0.711134 0.0505873 0.0235294
21 2 0.765291 0.0505873 0.0235294
22 1 0.849324 0.0715461 0.0235294
23 2 0.822245 0.0505873 0.0235294
24 2 0.876402 0.0505873 0.0235294
25 1 0.960435 0.0715461 0.0235294
26 2 0.933357 0.0505873 0.0235294
27 2 0.987513 0.0505873 0.0235294
28 1 0.0715461 0.182657 0.0235294
29 2 0.0444677 0.161698 0.0235294
30 2 0.0986245 0.161698 0.0235294
31 1 0.182657 0.182657 0.0235294
32 2 0.155579 0.161698 0.0235294
33 2 0.209736 0.161698 0.0235294
34 1 0.293768 0.182657 0.0235294
35 2 0.26669 0.161698 0.0235294
36 2 0.320847 0.161698 0.0235294
37 1 0.404879 0.182657 0.0235294
38 2 0.377801 0.161698 0.0235294
39 2 0.431958 0.161698 0.0235294
40 1 0.515991 0.182657 0.0235294
41 2 0.488912 0.161698 0.0235294
42 2 0.543069 0.161698 0.0235294
43 1 0.627102 0.182657 0.0235294
44 2 0.600023 0.161698 0.0235294
45 2 0.65418 0.161698 0.0235294
46 1 0.738213 0.182657 0.0235294
47 2 0.711134 0.161698 0.0235294
48 2 0.765291 0.161698 0.0235294
49 1 0.849324 0.182657 0.0235294
50 2 0.822245 0.161698 0.0235294
51 2 0.876402 0.161698 0.0235294
52 1 0.960435 0.182657 0.0235294
53 2 0.933357 0.161698 0.0235294
54 2 0.987513 0.161698 0.0235294
55 1 0.0715461 0.293768 0.0235294
56 2 0.0444677 0.27281 0.0235294
57 2 0.0986245 0.27281 0.0235294
58 1 0.182657 0.293768 0.0235294
59 2 0.155579 0.27281 0.0235294
60 2 0.209736 0.27281 0.0235294
61 1 0.293768 0.293768 0.0235294
62 2 0.26669 0.27281 0.0235294
63 2 0.320847 0.27281 0.0235294
64 1 0.404879 0.293768 0.0235294
65 2 0.377801 0.27281 0.0235294
66 2 0.431958 0.27281 0.0235294
67 1 0.515991 0.293768 0.0235294
68 2 0.488912 0.27281 0.0235294
69 2 0.543069 0.27281 0.0235294
70 1 0.627102 0.293768 0.0235294
71 2 0.600023 0.27281 0.0235294
72 2 0.65418 0.27281 0.0235294
73 1 0.738213 0.293768 0.0235294
74 2 0.711134 0.27281 0.0235294
75 2 0.765291 0.27281 0.0235294
76 1 0.849324 0.293768 0.0235294
77 2 0.822245 0.27281 0.0235294
78 2 0.876402 0.27281 0.0235294
79 1 0.960435 0.293768 0.0235294
80 2 0.933357 0.27281 0.0235294
81 2 0.987513 0.27281 0.0235294
82 1 0.0715461 0.404879 0.0235294
83 2 0.0444677 0.383921 0.0235294
84 2 0.0986245 0.383921 0.0235294
85 1 0.182657 0.404879 0.0235294
86 2 0.155579 0.383921 0.0235294
87 2 0.209736 0.383921 0.0235294
88 1 0.293768 0.404879 0.0235294
89 2 0.26669 0.383921 0.0235294
90 2 0.320847 0.383921 0.0235294
91 1 0.404879 0.404879 0.0235294
92 2 0.377801 0.383921 0.0235294
93 2 0.431958 0.383921 0.0235294
94 1 0.515991 0.404879 0.0235294
95 2 0.488912 0.383921 0.0235294
96 2 0.543069 0.383921 0.0235294
97 1 0.627102 0.404879 0.0235294
98 2 0.600023 0.383921 0.0235294
99 2 0.65418 0.383921 0.0235294
100 1 0.738213 0.404879 0.0235294
101 2 0.711134 0.383921 0.0235294
102 2 0.765291 0.383921 0.0235294
103 1 0.849324 0.404879 0.0235294
104 2 0.822245 0.383921 0.0235294
105 2 0.876402 0.383921 0.0235294
106 1 0.960435 0.404879 0.0235294
107 2 0.933357 0.383921 0.0235294
108 2 0.987513 0.383921 0.0235294
109 1 0.0715461 0.515991 0.0235294
110 2 0.0444677 0.495032 0.0235294
111 2 0.0986245 0.495032 0.0235294
112 1 0.182657 0.515991 0.0235294
113 2 0.155579 0.495032 0.0235294
114 2 0.209736 0.495032 0.0235294
115 1 0.293768 0.515991 0.0235294
116 2 0.26669 0.495032 0.0235294
117 2 0.320847 0.495032 0.0235294
118 1 0.404879 0.515991 0.0235294
119 2 0.377801 0.495032 0.0235294
120 2 0.431958 0.495032 0.0235294
121 1 0.515991 0.515991 0.0235294
122 2 0.488912 0.495032 0.0235294
123 2 0.543069 0.495032 0.0235294
124 1 0.627102 0.515991 0.0235294
125 2 0.600023 0.495032 0.0235294
126 2 0.65418 0.495032 0.0235294
127 1 0.738213 0.515991 0.0235294
128 2 0.711134 0.495032 0.0235294
129 2 0.765291 0.495032 0.0235294
130 1 0.849324 0.515991 0.0235294
131 2 0.822245 0.495032 0.0235294
132 2 0.876402 0.495032 0.0235294
133 1 0.960435 0.515991 0.0235294
134 2 0.933357 0.495032 0.0235294
135 2 0.987513 0.495032 0.0235294
136 1 0.0715461 0.627102 0.0235294
137 2 0.0444677 0.606143 0.0235294
138 2 0.0986245 0.606143 0.0235294
139 1 0.182657 0.627102 0.0235294
140 2 0.155579 0.606143 0.0235294
141 2 0.209736 0.606143 0.0235294
142 1 0.293768 0.627102 0.0235294
143 2 0.26669 0.606143 0.0235294
144 2 0.320847 0.606143 0.0235294
145 1 0.404879 0.627102 0.0235294
146 2 0.377801 0.606143 0.0235294
147 2 0.431958 0.606143 0.0235294
148 1 0.515991 0.627102 0.0235294
149 2 0.488912 0.606143 0.0235294
150 2 0.543069 0.606143 0.0235294
151 1 0.627102 0.627102 0.0235294
152 2 0.600023 0.606143 0.0235294
153 2 0.65418 0.606143 0.0235294
154 1 0.738213 0.627102 0.0235294
155 2 0.711134 0.606143 0.0235294
156 2 0.765291 0.606143 0.0235294
157 1 0.849324 0.627102 0.0235294
158 2 0.822245 0.606143 0.0235294
159 2 0.876402 0.606143 0.0235294
160 1 0.960435 0.627102 0.0235294
161 2 0.933357 0.606143 0.0235294
162 2 0.987513 0.606143 0.0235294
163 1 0.0715461 0.738213 0.0235294
164 2 0.0444677 0.717254 0.0235294
165 2 0.0986245 0.717254 0.0235294
166 1 0.182657 0.738213 0.0235294
167 2 0.155579 0.717254 0.0235294
168 2 0.209736 0.717254 0.0235294
169 1 0.293768 0.738213 0.0235294
170 2 0.26669 0.717254 0.0235294
171 2 0.320847 0.717254 0.0235294
172 1 0.404879 0.738213 0.0235294
173 2 0.377801 0.717254 0.0235294
174 2 0.431958 0.717254 0.0235294
175 1 0.515991 0.738213 0.0235294
176 2 0.488912 0.717254 0.0235294
177 2 0.543069 0.717254 0.0235294
178 1 0.627102 0.738213 0.0235294
179 2 0.600023 0.717254 0.0235294
180 2 0.65418 0.717254 0.0235294
181 1 0.738213 0.738213 0.0235294
182 2 0.711134 0.717254 0.0235294
183 2 0.765291 0.717254 0.0235294
184 1 0.849324 0.738213 0.0235294
185 2 0.822245 0.717254 0.0235294
186 2 0.876402 0.717254 0.0235294
187 1 0.960435 0.738213 0.0235294
188 2 0.933357 0.717254 0.0235294
189 2 0.987513 0.717254 0.0235294
190 1 0.0715461 0.849324 0.0235294
191 2 0.0444677 0.828365 0.0235294
192 2 0.0986245 0.828365 0.0235294
193 1 0.182657 0.849324 0.0235294
194 2 0.155579 0.828365 0.0235294
195 2 0.209736 0.828365 0.0235294
196 1 0.293768 0.849324 0.0235294
197 2 0.26669 0.828365 0.0235294
198 2 0.320847 0.828365 0.0235294
199 1 0.404879 0.849324 0.0235294
200 2 0.377801 0.828365 0.0235294
201 2 0.431958 0.828365 0.0235294
202 1 0.515991 0.849324 0.0235294
203 2 0.488912 0.828365 0.0235294
204 2 0.543069 0.828365 0.0235294
205 1 0.627102 0.849324 0.0235294
206 2 0.600023 0.828365 0.0235294
207 2 0.65418 0.828365 0.0235294
208 1 0.738213 0.849324 0.0235294
209 2 0.711134 0.828365 0.0235294
210 2 0.765291 0.828365 0.0235294
211 1 0.849324 0.849324 0.0235294
212 2 0.822245 0.828365 0.0235294
213 2 0.876402 0.828365 0.0235294
214 1 0.960435 0.849324 0.0235294
215 2 0.933357 0.828365 0.0235294
216 2 0.987513 0.828365 0.0235294
217 1 0.0715461 0.960435 0.0235294
218 2 0.0444677 0.939476 0.0235294
219 2 0.0986245 0.939476 0.0235294
220 1 0.182657 0.960435 0.0235294
221 2 0.155579 0.939476 0.0235294
222 2 0.209736 0.939476 0.0235294
223 1 0.293768 0.960435 0.0235294
224 2 0.26669 0.939476 0.0235294
225 2 0.320847 0.939476 0.0235294
226 1 0.404879 0.960435 0.0235294
227 2 0.377801 0.939476 0.0235294
228 2 0.431958 0.939476 0.0235294
229 1 0.515991 0.960435 0.0235294
230 2 0.488912 0.939476 0.0235294
231 2 0.543069 0.939476 0.0235294
232 1 0.627102 0.960435 0.0235294
233 2 0.600023 0.939476 0.0235294
234 2 0.65418 0.939476 0.0235294
235 1 0.738213 0.960435 0.0235294
236 2 0.711134 0.939476 0.0235294
237 2 0.765291 0.939476 0.0235294
238 1 0.849324 0.960435 0.0235294
239 2 0.822245 0.939476 0.0235294
240 2 0.876402 0.939476 0.0235294
241 1 0.960435 0.960435 0.0235294
242 2 0.933357 0.939476 0.0235294
243 2 0.987513 0.939476 0.0235294
244 1 0.0715461 0.0715461 0.0600706
245 2 0.0444677 0.0505873 0.0600706
246 2 0.0986245 0.0505873 0.0600706
247 1 0.182657 0.0715461 0.0600706
248 2 0.155579 0.0505873 0.0600706
249 2 0.209736 0.0505873 0.0600706
250 1 0.293768 0.0715461 0.0600706
251 2 0.26669 0.0505873 0.0600706
252 2 0.320847 0.0505873 0.0600706
253 1 0.404879 0.0715461 0.0600706
254 2 0.377801 0.0505873 0.0600706
255 2 0.431958 0.0505873 0.0600706
256 1 0.515991 0.0715461 0.0600706
257 2 0.488912 0.0505873 0.0600706
258 2 0.543069 0.0505873 0.0600706
259 1 0.627102 0.0715461 0.0600706
260 2 0.600023 0.0505873 0.0600706
261 2 0.65418 0.0505873 0.0600706
262 1 0.738213 0.0715461 0.0600706
263 2 0.711134 0.0505873 0.0600706
264 2 0.765291 0.0505873 0.0600706
265 1 0.849324 0.0715461 0.0600706
266 2 0.822245 0.0505873 0.0600706
267 2 0.876402 0.0505873 0.0600706
268 1 0.960435 0.0715461 0.0600706
269 2 0.933357 0.0505873 0.0600706
270 2 0.987513 0.0505873 0.0600706
271 1 0.0715461 0.182657 0.0600706
272 2 0.0444677 0.161698 0.0600706
273 2 0.0986245 0.161698 0.0600706
274 1 0.182657 0.182657 0.0600706
275 2 0.155579 0.161698 0.0600706
276 2 0.209736 0.161698 0.0600706
277 1 0.293768 0.182657 0.0600706
278 2 0.26669 0.161698 0.0600706
279 2 0.320847 0.161698 0.0600706
280 1 0.404879 0.182657 0.0600706
281 2 0.377801 0.161698 0.0600706
282 2 0.431958 0.161698 0.0600706
283 1 0.515991 0.182657 0.0600706
284 2 0.488912 0.161698 0.0600706
285 2 0.543069 0.161698 0.0600706
286 1 0.627102 0.182657 0.0600706
287 2 0.600023 0.161698 0.0600706
288 2 0.65418 0.161698 0.0600706
289 1 0.738213 0.182657 0.0600706
290 2 0.711134 0.161698 0.0600706
291 2 0.765291 0.161698 0.0600706
292 1 0.849324 0.182657 0.0600706
293 2 0.822245 0.161698 0.0600706
294 2 0.876402 0.161698 0.0600706
295 1 0.960435 0.182657 0.0600706
296 2 0.933357 0.161698 0.0600706
297 2 0.987513 0.161698 0.0600706
298 1 0.0715461 0.293768 0.0600706
299 2 0.0444677 0.27281 0.0600706
300 2 0.0986245 0.27281 0.0600706
301 1 0.182657 0.293768 0.0600706
302 2 0.155579 0.27281 0.0600706
303 2 0.209736 0.27281 0.0600706
304 1 0.293768 0.293768 0.0600706
305 2 0.26669 0.27281 0.0600706
306 2 0.320847 0.27281 0.0600706
307 1 0.404879 0.293768 0.0600706
308 2 0.377801 0.27281 0.0600706
309 2 0.431958 0.27281 0.0600706
310 1 0.515991 0.293768 0.0600706
311 2 0.488912 0.27281 0.0600706
312 2 0.543069 0.27281 0.0600706
313 1 0.627102 0.293768 0.0600706
314 2 0.600023 0.27281 0.0600706
315 2 0.65418 0.27281 0.0600706
316 1 0.738213 0.293768 0.0600706
317 2 0.711134 0.27281 0.0600706
318 2 0.765291 0.27281 0.0600706
319 1 0.849324 0.293768 0.0600706
320 2 0.822245 0.27281 0.0600706
321 2 0.876402 0.27281 0.0600706
322 1 0.960435 0.293768 0.0600706
323 2 0.933357 0.27281 0.0600706
324 2 0.987513 0.27281 0.0600706
325 1 0.0715461 0.404879 0.0600706
326 2 0.0444677 0.383921 0.0600706
327 2 0.0986245 0.383921 0.0600706
328 1 0.182657 0.404879 0.0600706
329 2 0.155579 0.383921 0.0600706
330 2 0.209736 0.383921 0.0600706
331 1 0.293768 0.404879 0.0600706
332 2 0.26669 0.383921 0.0600706
333 2 0.320847 0.383921 0.0600706
334 1 0.404879 0.404879 0.0600706
335 2 0.377801 0.383921 0.0600706
336 2 0.431958 0.383921 0.0600706
337 1 0.515991 0.404879 0.0600706
338 2 0.488912 0.383921 0.0600706
339 2 0.543069 0.383921 0.0600706
340 1 0.627102 0.404879 0.0600706
341 2 0.600023 0.383921 0.0600706
342 2 0.65418 0.383921 0.0600706
343 1 0.738213 0.404879 0.0600706
344 2 0.711134 0.383921 0.0600706
345 2 0.765291 0.383921 0.0600706
346 1 0.849324 0.404879 0.0600706
347 2 0.822245 0.383921 0.0600706
348 2 0.876402 0.383921 0.0600706
349 1 0.960435 0.404879 0.0600706
350 2 0.933357 0.383921 0.0600706
351 2 0.987513 0.383921 0.0600706
352 1 0.0715461 0.515991 0.0600706
353 2 0.0444677 0.495032 0.0600706
354 2 0.0986245 0.495032 0.0600706
355 1 0.182657 0.515991 0.0600706
356 2 0.155579 0.495032 0.0600706
357 2 0.209736 0.495032 0.0600706
358 1 0.293768 0.515991 0.0600706
359 2 0.26669 0.495032 0.0600706
360 2 0.320847 0.495032 0.0600706
361 1 0.404879 0.515991 0.0600706
362 2 0.377801 0.495032 0.0600706
363 2 0.431958 0.495032 0.0600706
364 1 0.515991 0.515991 0.0600706
365 2 0.488912 0.495032 0.0600706
366 2 0.543069 0.495032 0.0600706
367 1 0.627102 0.515991 0.0600706
368 2 0.600023 0.495032 0.0600706
369 2 0.65418 0.495032 0.0600706
370 1 0.738213 0.515991 0.0600706
371 2 0.711134 0.495032 0.0600706
372 2 0.765291 0.495032 0.0600706
373 1 0.849324 0.515991 0.0600706
374 2 0.822245 0.495032 0.0600706
375 2 0.876402 0.495032 0.0600706
376 1 0.960435 0.515991 0.0600706
377 2 0.933357 0.495032 0.0600706
378 2 0.987513 0.495032 0.0600706
379 1 0.0715461 0.627102 0.0600706
380 2 0.0444677 0.606143 0.0600706
381 2 0.0986245 0.606143 0.0600706
382 1 0.182657 0.627102 0.0600706
383 2 0.155579 0.606143 0.0600706
384 2 0.209736 0.606143 0.0600706
385 1 0.293768 0.627102 0.0600706
386 2 0.26669 0.606143 0.0600706
387 2 0.320847 0.606143 0.0600706
388 1 0.404879 0.627102 0.0600706
389 2 0.377801 0.606143 0.0600706
390 2 0.431958 0.606143 0.0600706
391 1 0.515991 0.627102 0.0600706
392 2 0.488912 0.606143 0.0600706
393 2 0.543069 0.606143 0.0600706
394 1 0.627102 0.627102 0.0600706
395 2 0.600023 0.606143 0.0600706
396 2 0.65418 0.606143 0.0600706
397 1 0.738213 0.627102 0.0600706
398 2 0.711134 0.606143 0.0600706
399 2 0.765291 0.606143 0.0600706
400 1 0.849324 0.627102 0.0600706
401 2 0.822245 0.606143 0.0600706
402 2 0.876402 0.606143 0.0600706
403 1 0.960435 0.627102 0.0600706
404 2 0.933357 0.606143 0.0600706
405 2 0.987513 0.606143 0.0600706
406 1 0.0715461 0.738213 0.0600706
407 2 0.0444677 0.717254 0.0600706
408 2 0.0986245 0.717254 0.0600706
409 1 0.182657 0.738213 0.0600706
410 2 0.155579 0.717254 0.0600706
411 2 0.209736 0.717254 0.0600706
412 1 0.293768 0.738213 0.0600706
413 2 0.26669 0.717254 0.0600706
414 2 0.320847 0.717254 0.0600706
415 1 0.404879 0.738213 0.0600706
416 2 0.377801 0.717254 0.0600706
417 2 0.431958 0.717254 0.0600706
418 1 0.515991 0.738213 0.0600706
419 2 0.488912 0.717254 0.0600706
420 2 0.543069 0.717254 0.0600706
421 1 0.627102 0.738213 0.0600706
422 2 0.600023 0.717254 0.0600706
423 2 0.65418 0.717254 0.0600706
424 1 0.738213 0.738213 0.0600706
425 2 0.711134 0.717254 0.0600706
426 2 0.765291 0.717254 0.0600706
427 1 0.849324 0.738213 0.0600706
428 2 0.822245 0.717254 0.0600706
429 2 0.876402 0.717254 0.0600706
430 1 0.960435 0.738213 0.0600706
431 2 0.933357 0.717254 0.0600706
432 2 0.987513 0.717254 0.0600706
433 1 0.0715461 0.849324 0.0600706
434 2 0.0444677 0.828365 0.0600706
435 2 0.0986245 0.828365 0.0600706
436 1 0.182657 0.849324 0.0600706
437 2 0.155579 0.828365 0.0600706
438 2 0.209736 0.828365 0.0600706
439 1 0.293768 0.849324 0.0600706
440 2 0.26669 0.828365 0.0600706
441 2 0.320847 0.828365 0.0600706
442 1 0.404879 0.849324 0.0600706
443 2 0.377801 0.828365 0.0600706
444 2 0.431958 0.828365 0.0600706
445 1 0.515991 0.849324 0.0600706
446 2 0.488912 0.828365 0.0600706
447 2 0.543069 0.828365 0.0600706
448 1 0.627102 0.849324 0.0600706
449 2 0.600023 0.828365 0.0600706
450 2 0.65418 0.828365 0.0600706
451 1 0.738213 0.849324 0.0600706
452 2 0.711134 0.828365 0.0600706
453 2 0.765291 0.828365 0.0600706
454 1 0.849324 0.849324 0.0600706
455 2 0.822245 0.828365 0.0600706
456 2 0.876402 0.828365 0.0600706
457 1 0.960435 0.849324 0.0600706
458 2 0.933357 0.828365 0.0600706
459 2 0.987513 0.828365 0.0600706
460 1 0.0715461 0.960435 0.0600706
461 2 0.0444677 0.939476 0.0600706
462 2 0.0986245 0.939476 0.0600706
463 1 0.182657 0.960435 0.0600706
464 2 0.155579 0.939476 0.0600706
465 2 0.209736 0.939476 0.0600706
466 1 0.293768 0.960435 0.0600706
467 2 0.26669 0.939476 0.0600706
468 2 0.320847 0.939476 0.0600706
469 1 0.404879 0.960435 0.0600706
470 2 0.377801 0.939476 0.0600706
471 2 0.431958 0.939476 0.0600706
472 1 0.515991 0.960435 0.0600706
473 2 0.488912 0.939476 0.0600706
474 2 0.543069 0.939476 0.0600706
475 1 0.627102 0.960435 0.0600706
476 2 0.600023 0.939476 0.0600706
477 2 0.65418 0.939476 0.0600706
478 1 0.738213 0.960435 0.0600706
479 2 0.711134 0.939476 0.0600706
480 2 0.765291 0.939476 0.0600706
481 1 0.849324 0.960435 0.0600706
482 2 0.822245 0.939476 0.0600706
483 2 0.876402 0.939476 0.0600706
484 1 0.960435 0.960435 0.0600706
485 2 0.933357 0.939476 0.0600706
486 2 0.987513 0.939476 0.0600706
487 1 0.0715461 0.0715461 0.0966118
488 2 0.0444677 0.0505873 0.0966118
489 2 0.0986245 0.0505873 0.0966118
490 1 0.182657 0.0715461 0.0966118
491 2 0.155579 0.0505873 0.0966118
492 2 0.209736 0.0505873 0.0966118
493 1 0.293768 0.0715461 0.0966118
494 2 0.26669 0.0505873 0.0966118
495 2 0.320847 0.0505873 0.0966118
496 1 0.404879 0.0715461 0.0966118
497 2 0.377801 0.0505873 0.0966118
498 2 0.431958 0.0505873 0.0966118
499 1 0.515991 0.0715461 0.0966118
500 2 0.488912 0.0505873 0.0966118
501 2 0.543069 0.0505873 0.0966118
502 1 0.627102 0.0715461 0.0966118
503 2 0.600023 0.0505873 0.0966118
504 2 0.65418 0.0505873 0.0966118
505 1 0.738213 0.0715461 0.0966118
506 2 0.711134 0.0505873 0.0966118
507 2 0.765291 0.0505873 0.0966118
508 1 0.849324 0.0715461 0.0966118
509 2 0.822245 0.0505873 0.0966118
510 2 0.876402 0.0505873 0.0966118
511 1 0.960435 0.0715461 0.0966118
512 2 0.933357 0.0505873 0.0966118
513 2 0.987513 0.0505873 0.0966118
514 1 0.0715461 0.182657 0.0966118
515 2 0.0444677 0.161698 0.0966118
516 2 0.0986245 0.161698 0.0966118
517 1 0.182657 0.182657 0.0966118
518 2 0.155579 0.161698 0.0966118
519 2 0.209736 0.161698 0.0966118
520 1 0.293768 0.182657 0.0966118
521 2 0.26669 0.161698 0.0966118
522 2 0.320847 0.161698 0.0966118
523 1 0.404879 0.182657 0.0966118
524 2 0.377801 0.161698 0.0966118
525 2 0.431958 0.161698 0.0966118
526 1 0.515991 0.182657 0.0966118
527 2 0.488912 0.161698 0.0966118
528 2 0.543069 0.161698 0.0966118
529 1 0.627102 0.182657 0.0966118
530 2 0.600023 0.161698 0.0966118
531 2 0.65418 0.161698 0.0966118
532 1 0.738213 0.182657 0.0966118
533 2 0.711134 0.161698 0.0966118
534 2 0.765291 0.161698 0.0966118
535 1 0.849324 0.182657 0.0966118
536 2 0.822245 0.161698 0.0966118
537 2 0.876402 0.161698 0.0966118
538 1 0.960435 0.182657 0.0966118
539 2 0.933357 0.161698 0.0966118
540 2 0.987513 0.161698 0.0966118
541 1 0.0715461 0.293768 0.0966118
542 2 0.0444677 0.27281 0.0966118
543 2 0.0986245 0.27281 0.0966118
544 1 0.182657 0.293768 0.0966118
545 2 0.155579 0.27281 0.0966118
546 2 0.209736 0.27281 0.0966118
547 1 0.293768 0.293768 0.0966118
548 2 0.26669 0.27281 0.0966118
549 2 0.320847 0.27281 0.0966118
550 1 0.404879 0.293768 0.0966118
551 2 0.377801 0.27281 0.0966118
552 2 0.431958 0.27281 0.0966118
553 1 0.515991 0.293768 0.0966118
554 2 0.488912 0.27281 0.0966118
555 2 0.543069 0.27281 0.0966118
556 1 0.627102 0.293768 0.0966118
557 2 0.600023 0.27281 0.0966118
558 2 0.65418 0.27281 0.0966118
559 1 0.738213 0.293768 0.0966118
560 2 0.711134 0.27281 0.0966118
561 2 0.765291 0.27281 0.0966118
562 1 0.849324 0.293768 0.0966118
563 2 0.822245 0.27281 0.0966118
564 2 0.876402 0.27281 0.0966118
565 1 0.960435 0.293768 0.0966118
566 2 0.933357 0.27281 0.0966118
567 2 0.987513 0.27281 0.0966118
568 1 0.0715461 0.404879 0.0966118
569 2 0.0444677 0.383921 0.0966118
570 2 0.0986245 0.383921 0.0966118
571 1 0.182657 0.404879 0.0966118
572 2 0.155579 0.383921 0.0966118
573 2 0.209736 0.383921 0.0966118
574 1 0.293768 0.404879 0.0966118
575 2 0.26669 0.383921 0.0966118
576 2 0.320847 0.383921 0.0966118
577 1 0.404879 0.404879 0.0966118
578 2 0.377801 0.383921 0.0966118
579 2 0.431958 0.383921 0.0966118
580 1 0.515991 0.404879 0.0966118
581 2 0.488912 0.383921 0.0966118
582 2 0.543069 0.383921 0.0966118
583 1 0.627102 0.404879 0.0966118
584 2 0.600023 0.383921 0.0966118
585 2 0.65418 0.383921 0.0966118
586 1 0.738213 0.404879 0.0966118
587 2 0.711134 0.383921 0.0966118
588 2 0.765291 0.383921 0.0966118
589 1 0.849324 0.404879 0.0966118
590 2 0.822245 0.383921 0.0966118
591 2 0.876402 0.383921 0.0966118
592 1 0.960435 0.404879 0.0966118
593 2 0.933357 0.383921 0.0966118
594 2 0.987513 0.383921 0.0966118
595 1 0.0715461 0.515991 0.0966118
596 2 0.0444677 0.495032 0.0966118
597 2 0.0986245 0.495032 0.0966118
598 1 0.182657 0.515991 0.0966118
599 2 0.155579 0.495032 0.0966118
600 2 0.209736 0.495032 0.0966118
601 1 0.293768 0.515991 0.0966118
602 2 0.26669 0.495032 0.0966118
603 2 0.320847 0.495032 0.0966118
604 1 0.404879 0.515991 0.0966118
605 2 0.377801 0.495032 0.0966118
606 2 0.431958 0.495032 0.0966118
607 1 0.515991 0.515991 0.0966118
608 2 0.488912 0.495032 0.0966118
609 2 0.543069 0.495032 0.0966118
610 1 0.627102 0.515991 0.0966118
611 2 0.600023 0.495032 0.0966118
612 2 0.65418 0.495032 0.0966118
613 1 0.738213 0.515991 0.0966118
614 2 0.711134 0.495032 0.0966118
615 2 0.765291 0.495032 0.0966118
616 1 0.849324 0.515991 0.0966118
617 2 0.822245 0.495032 0.0966118
618 2 0.876402 0.495032 0.0966118
619 1 0.960435 0.515991 0.0966118
620 2 0.933357 0.495032 0.0966118
621 2 0.987513 0.495032 0.0966118
622 1 0.0715461 0.627102 0.0966118
623 2 0.0444677 0.606143 0.0966118
624 2 0.0986245 0.606143 0.0966118
625 1 0.182657 0.627102 0.0966118
626 2 0.155579 0.606143 0.0966118
627 2 0.209736 0.606143 0.0966118
628 1 0.293768 0.627102 0.0966118
629 2 0.26669 0.606143 0.0966118
630 2 0.320847 0.606143 0.0966118
631 1 0.404879 0.627102 0.0966118
632 2 0.377801 0.606143 0.0966118
633 2 0.431958 0.606143 0.0966118
634 1 0.515991 0.627102 0.0966118
635 2 0.488912 0.606143 0.0966118
636 2 0.543069 0.606143 0.0966118
637 1 0.627102 0.627102 0.0966118
638 2 0.600023 0.606143 0.0966118
639 2 0.65418 0.606143 0.0966118
640 1 0.738213 0.627102 0.0966118
641 2 0.711134 0.606143 0.0966118
642 2 0.765291 0.606143 0.0966118
643 1 0.849324 0.627102 0.0966118
644 2 0.822245 0.606143 0.0966118
645 2 0.876402 0.606143 0.0966118
646 1 0.960435 0.627102 0.0966118
647 2 0.933357 0.606143 0.0966118
648 2 0.987513 0.606143 0.0966118
649 1 0.0715461 0.738213 0.0966118
650 2 0.0444677 0.717254 0.0966118
651 2 0.0986245 0.717254 0.0966118
652 1 0.182657 0.738213 0.0966118
653 2 0.155579 0.717254 0.0966118
654 2 0.209736 0.717254 0.0966118
655 1 0.293768 0.738213 0.0966118
656 2 0.26669 0.717254 0.0966118
657 2 0.320847 0.717254 0.0966118
658 1 0.404879 0.738213 0.0966118
659 2 0.377801 0.717254 0.0966118
660 2 0.431958 0.717254 0.0966118
661 1 0.515991 0.738213 0.0966118
662 2 0.488912 0.717254 0.0966118
663 2 0.543069 0.717254 0.0966118
664 1 0.627102 0.738213 0.0966118
665 2 0.600023 0.717254 0.0966118
666 2 0.65418 0.717254 0.0966118
667 1 0.738213 0.738213 0.0966118
668 2 0.711134 0.717254 0.0966118
669 2 0.765291 0.717254 0.0966118
670 1 0.849324 0.738213 0.0966118
671 2 0.822245 0.717254 0.0966118
672 2 0.876402 0.717254 0.0966118
673 1 0.960435 0.738213 0.0966118
674 2 0.933357 0.717254 0.0966118
675 2 0.987513 0.717254 0.0966118
676 1 0.0715461 0.849324 0.0966118
677 2 0.0444677 0.828365 0.0966118
678 2 0.0986245 0.828365 0.0966118
679 1 0.182657 0.849324 0.0966118
680 2 0.155579 0.828365 0.0966118
681 2 0.209736 0.828365 0.0966118
682 1 0.293768 0.849324 0.0966118
683 2 0.26669 0.828365 0.0966118
684 2 0.320847 0.828365 0.0966118
685 1 0.404879 0.849324 0.0966118
686 2 0.377801 0.828365 0.0966118
687 2 0.431958 0.828365 0.0966118
688 1 0.515991 0.849324 0.0966118
689 2 0.488912 0.828365 0.0966118
690 2 0.543069 0.828365 0.0966118
691 1 0.627102 0.849324 0.0966118
692 2 0.600023 0.828365 0.0966118
693 2 0.65418 0.828365 0.0966118
694 1 0.738213 0.849324 0.0966118
695 2 0.711134 0.828365 0.0966118
696 2 0.765291 0.828365 0.0966118
697 1 0.849324 0.849324 0.0966118
698 2 0.822245 0.828365 0.0966118
699 2 0.876402 0.828365 0.0966118
700 1 0.960435 0.849324 0.0966118
701 2 0.933357 0.828365 0.0966118
702 2 0.987513 0.828365 0.0966118
703 1 0.0715461 0.960435 0.0966118
704 2 0.0444677 0.939476 0.0966118
705 2 0.0986245 0.939476 0.0966118
706 1 0.182657 0.960435 0.0966118
707 2 0.155579 0.939476 0.0966118
708 2 0.209736 0.939476 0.0966118
709 1 0.293768 0.960435 0.0966118
710 2 0.26669 0.939476 0.0966118
711 2 0.320847 0.939476 0.0966118
712 1 0.404879 0.960435 0.0966118
713 2 0.377801 0.939476 0.0966118
714 2 0.431958 0.939476 0.0966118
715 1 0.515991 0.960435 0.0966118
716 2 0.488912 0.939476 0.0966118
717 2 0.543069 0.939476 0.0966118
718 1 0.627102 0.960435 0.0966118
719 2 0.600023 0.939476 0.0966118
720 2 0.65418 0.939476 0.0966118
721 1 0.738213 0.960435 0.0966118
722 2 0.711134 0.939476 0.0966118
723 2 0.765291 0.939476 0.0966118
724 1 0.849324 0.960435 0.0966118
725 2 0.822245 0.939476 0.0966118
726 2 0.876402 0.939476 0.0966118
727 1 0.960435 0.960435 0.0966118
728 2 0.933357 0.939476 0.0966118
729 2 0.987513 0.939476 0.0966118
730 1 0.0715461 0.0715461 0.133153
731 2 0.0444677 0.0505873 0.133153
732 2 0.0986245 0.0505873 0.133153
733 1 0.182657 0.0715461 0.133153
734 2 0.155579 0.0505873 0.133153
735 2 0.209736 0.0505873 0.133153
736 1 0.293768 0.0715461 0.133153
737 2 0.26669 0.0505873 0.133153
738 2 0.320847 0.0505873 0.133153
739 1 0.404879 0.0715461 0.133153
740 2 0.377801 0.0505873 0.133153
741 2 0.431958 0.0505873 0.133153
742 1 0.515991 0.0715461 0.133153
743 2 0.488912 0.0505873 0.133153
744 2 0.543069 0.0505873 0.133153
745 1 0.627102 0.0715461 0.133153
746 2 0.600023 0.0505873 0.133153
747 2 0.65418 0.0505873 0.133153
748 1 0.738213 0.0715461 0.133153
749 2 0.711134 0.0505873 0.133153
750 2 0.765291 0.0505873 0.133153
751 1 0.849324 0.0715461 0.133153
752 2 0.822245 0.0505873 0.133153
753 2 0.876402 0.0505873 0.133153
754 1 0.960435 0.0715461 0.133153
755 2 0.933357 0.0505873 0.133153
756 2 0.987513 0.0505873 0.133153
757 1 0.0715461 0.182657 0.133153
758 2 0.0444677 0.161698 0.133153
759 2 0.0986245 0.161698 0.133153
760 1 0.182657 0.182657 0.133153
761 2 0.155579 0.161698 0.133153
762 2 0.209736 0.161698 0.133153
763 1 0.293768 0.182657 0.133153
764 2 0.26669 0.161698 0.133153
765 2 0.320847 0.161698 0.133153
766 1 0.404879 0.182657 0.133153
767 2 0.377801 0.161698 0.133153
768 2 0.431958 0.161698 0.133153
769 1 0.515991 0.182657 0.133153
770 2 0.488912 0.161698 0.133153
771 2 0.543069 0.161698 0.133153
772 1 0.627102 0.182657 0.133153
773 2 0.600023 0.161698 0.133153
774 2 0.65418 0.161698 0.133153
775 1 0.738213 0.182657 0.133153
776 2 0.711134 0.161698 0.133153
777 2 0.765291 0.161698 0.133153
778 1 0.849324 0.182657 0.133153
779 2 0.822245 0.161698 0.133153
780 2 0.876402 0.161698 0.133153
781 1 0.960435 0.182657 0.133153
782 2 0.933357 0.161698 0.133153
783 2 0.987513 0.161698 0.133153
784 1 0.0715461 0.293768 0.133153
785 2 0.0444677 0.27281 0.133153
786 2 0.0986245 0.27281 0.133153
787 1 0.182657 0.293768 0.133153
788 2 0.155579 0.27281 0.133153
789 2 0.209736 0.27281 0.133153
790 1 0.293768 0.293768 0.133153
791 2 0.26669 0.27281 0.133153
792 2 0.320847 0.27281 0.133153
793 1 0.404879 0.293768 0.133153
794 2 0.377801 0.27281 0.133153
795 2 0.431958 0.27281 0.133153
796 1 0.515991 0.293768 0.133153
797 2 0.488912 0.27281 0.133153
798 2 0.543069 0.27281 0.133153
799 1 0.627102 0.293768 0.133153
800 2 0.600023 0.27281 0.133153
801 2 0.65418 0.27281 0.133153
802 1 0.738213 0.293768 0.133153
803 2 0.711134 0.27281 0.133153
804 2 0.765291 0.27281 0.133153
805 1 0.849324 0.293768 0.133153
806 2 0.822245 0.27281 0.133153
807 2 0.876402 0.27281 0.133153
808 1 0.960435 0.293768 0.133153
809 2 0.933357 0.27281 0.133153
810 2 0.987513 0.27281 0.133153
811 1 0.0715461 0.404879 0.133153
812 2 0.0444677 0.383921 0.133153
813 2 0.0986245 0.383921 0.133153
814 1 0.182657 0.404879 0.133153
815 2 0.155579 0.383921 0.133153
816 2 0.209736 0.383921 0.133153
817 1 0.293768 0.404879 0.133153
818 2 0.26669 0.383921 0.133153
819 2 0.320847 0.383921 0.133153
820 1 0.404879 0.404879 0.133153
821 2 0.377801 0.383921 0.133153
822 2 0.431958 0.383921 0.133153
823 1 0.515991 0.404879 0.133153
824 2 0.488912 0.383921 0.133153
825 2 0.543069 0.383921 0.133153
826 1 0.627102 0.404879 0.133153
827 2 0.600023 0.383921 0.133153
828 2 0.65418 0.383921 0.133153
829 1 0.738213 0.404879 0.133153
830 2 0.711134 0.383921 0.133153
831 2 0.765291 0.383921 0.133153
832 1 0.849324 0.404879 0.133153
833 2 0.822245 0.383921 0.133153
834 2 0.876402 0.383921 0.133153
835 1 0.960435 0.404879 0.133153
836 2 0.933357 0.383921 0.133153
837 2 0.987513 0.383921 0.133153
838 1 0.0715461 0.515991 0.133153
839 2 0.0444677 0.495032 0.133153
840 2 0.0986245 0.495032 0.133153
841 1 0.182657 0.515991 0.133153
842 2 0.155579 0.495032 0.133153
843 2 0.209736 0.495032 0.133153
844 1 0.293768 0.515991 0.133153
845 2 0.26669 0.495032 0.133153
846 2 0.320847 0.495032 0.133153
847 1 0.404879 0.515991 0.133153
848 2 0.377801 0.495032 0.133153
849 2 0.431958 0.495032 0.133153
850 1 0.515991 0.515991 0.133153
851 2 0.488912 0.495032 0.133153
852 2 0.543069 0.495032 0.133153
853 1 0.627102 0.515991 0.133153
854 2 0.600023 0.495032 0.133153
855 2 0.65418 0.495032 0.133153
856 1 0.738213 0.515991 0.133153
857 2 0.711134 0.495032 0.133153
858 2 0.765291 0.495032 0.133153
859 1 0.849324 0.515991 0.133153
860 2 0.822245 0.495032 0.133153
861 2 0.876402 0.495032 0.133153
862 1 0.960435 0.515991 0.133153
863 2 0.933357 0.495032 0.133153
864 2 0.987513 0.495032 0.133153
865 1 0.0715461 0.627102 0.133153
866 2 0.0444677 0.606143 0.133153
867 2 0.0986245 0.606143 0.133153
868 1 0.182657 0.627102 0.133153
869 2 0.155579 0.606143 0.133153
870 2 0.209736 0.606143 0.133153
871 1 0.293768 0.627102 0.133153
872 2 0.26669 0.606143 0.133153
873 2 0.320847 0.606143 0.133153
874 1 0.404879 0.627102 0.133153
875 2 0.377801 0.606143 0.133153
876 2 0.431958 0.606143 0.133153
877 1 0.515991 0.627102 0.133153
878 2 0.488912 0.606143 0.133153
879 2 0.543069 0.606143 0.133153
880 1 0.627102 0.627102 0.133153