ITEM: TIMESTEP
16000
ITEM: NUMBER OF ATOMS
4860
ITEM: BOX BOUNDS pp pp ff
0.0000000000000000e+00 3.0000000000000000e+01
0.0000000000000000e+00 3.0000000000000000e+01
0.0000000000000000e+00 1.2000000000000000e+02
ITEM: ATOMS id type x y z
722 2 23.6541 1.9032 32.858
19 1 0.0489639 2.90084 32.3931
20 2 0.32413 3.12088 31.4572
721 1 23.3242 1.28787 32.142
21 2 29.1332 3.26367 32.5653
11 2 16.0787 8.40535 31.2849
12 2 17.3899 9.02908 32.0321
10 1 16.6756 8.33116 32.0838
70 1 18.8365 9.79803 31.821
71 2 19.4145 9.60768 31.0276
41 2 15.8902 7.52494 33.7672
100 1 23.6057 11.1565 34.1267
72 2 19.413 10.0024 32.6121
46 1 23.8818 8.28938 33.1678
313 1 20.4801 10.2647 33.8144
315 2 20.913 9.47388 34.2471
314 2 21.1777 10.8214 33.3635
48 2 24.6131 8.26706 32.4861
101 2 24.5352 11.4637 34.3311
320 2 25.6522 9.08129 30.2425
296 2 27.6727 9.43103 33.9967
321 2 26.562 8.94077 31.5913
319 1 25.6476 8.81511 31.2064
295 1 27.923 8.87333 33.2052
348 2 27 12.1079 34.9122
132 2 1.98925 16.6448 32.3242
130 1 1.54108 16.635 33.218
188 2 0.418618 19.3529 33.6784
151 1 17.1751 16.7005 32.7509
152 2 17.2132 17.5639 33.254
179 2 20.6483 15.2546 31.7373
180 2 20.8908 15.2022 30.1233
178 1 20.8452 14.6568 30.9602
124 1 19.9296 15.912 33.1922
399 2 24.0731 15.9987 34.96
125 2 19.0001 16.2547 33.0559
104 2 0.34377 14.9999 33.5894
131 2 1.23162 17.5583 33.4458
186 2 25.6188 18.0382 34.1054
128 2 26.6807 15.7188 33.1451
103 1 29.7638 14.186 33.6254
105 2 0.301143 13.4079 33.9507
127 1 26.9341 14.9246 33.6973
129 2 27.8411 14.6042 33.4239
187 1 1.29416 19.7458 33.3973
405 2 1.35666 23.6507 35.053
403 1 1.47478 22.6605 34.9784
189 2 1.18289 20.7264 33.2357
153 2 16.8371 16.8689 31.825
182 2 18.6206 22.7417 33.6046
184 1 26.439 18.594 34.2412
155 2 25.2415 21.7693 33.9096
185 2 26.1734 19.5218 34.503
207 2 19.3013 27.8794 33.1281
176 2 14.9045 24.7033 33.9285
202 1 17.4691 25.6295 34.6748
203 2 18.4116 25.9398 34.5502
175 1 15.5558 24.2766 33.3011
177 2 16.4249 24.77 33.3364
205 1 19.3317 27.6015 34.0882
244 1 2.171 3.29711 36.4217
219 2 0.678707 2.2037 35.4747
217 1 0.616696 1.64835 34.6454
190 1 4.3063 0.947783 37.6648
245 2 2.04045 4.22079 36.0615
246 2 2.94576 3.29234 37.0539
191 2 5.14032 0.695089 38.1552
218 2 0.419788 2.23887 33.8627
3 2 4.97223 3.63162 38.7047
192 2 4.17463 1.93759 37.719
2 2 3.48028 4.28078 38.5658
1 1 4.08628 3.55157 38.2479
167 2 5.73223 5.25457 35.6115
28 1 6.52283 3.94815 39.1353
30 2 7.13317 3.76488 38.3646
166 1 6.58969 5.60544 35.9879
221 2 8.01785 0.492222 38.0739
220 1 8.92511 0.884148 37.9213
222 2 8.83599 1.74767 37.425
194 2 8.90235 3.89634 36.8823
195 2 7.36429 3.76485 36.3497
193 1 8.10837 3.29149 36.8211
223 1 10.3428 4.68891 37.6868
225 2 11.3294 4.56492 37.7925
224 2 10.0032 5.29086 38.4095
1000 1 2.98456 5.59872 39.8494
294 2 23.2324 5.84607 39.0793
474 2 16.7494 28.4571 35.5468
231 2 14.789 0.404917 36.6376
229 1 14.8916 29.7375 37.3751
32 2 14.2461 2.01889 35.6593
7 1 12.4826 2.32289 35.826
31 1 15.2099 1.77874 35.5428
8 2 11.6393 1.79118 35.7482
9 2 12.2868 3.28674 35.6452
254 2 16.4037 4.18008 37.8184
255 2 16.6953 2.59863 38.1024
33 2 15.7772 2.58375 35.7161
253 1 16.9769 3.39847 37.5723
234 2 17.9587 0.125648 36.1331
232 1 18.3121 29.8649 35.2347
654 2 6.20971 26.6993 39.3692
233 2 19.0699 0.46847 34.9866
457 1 25.9338 21.4314 40.0281
473 2 15.944 27.9111 36.8583
293 2 24.4958 6.66644 39.7098
230 2 15.589 0.055282 38.0175
968 2 23.5018 0.560375 36.6338
15 2 19.7116 5.0131 33.5211
479 2 23.9829 6.02964 36.2774
264 2 21.7993 5.28024 37.6274
475 1 18.8856 1.01598 38.6991
259 1 19.2965 3.86487 36.3299
260 2 18.3399 3.85883 36.6213
261 2 19.89 3.87321 37.1347
14 2 19.718 5.09296 35.1521
13 1 19.7868 5.62518 34.3083
18 2 21.9532 2.84813 38.0022
969 2 23.4794 1.87227 35.6617
17 2 20.9058 3.27565 39.1799
16 1 21.1306 3.37722 38.2108
477 2 19.3107 0.377118 38.0579
967 1 22.9154 1.18034 36.1125
720 2 19.989 2.21013 35.4881
717 2 21.1864 0.0701242 36.8689
1002 2 2.22576 6.22673 40.0221
718 1 20.3801 1.54773 34.8491
719 2 21.3225 1.34463 35.1148
1140 2 0.655272 20.8389 39.8855
109 1 2.70157 14.0313 39.7371
965 2 22.5865 0.465753 38.8552
715 1 20.5805 29.4151 37.3204
478 1 24.8151 6.14033 35.734
509 2 24.2607 3.70174 34.4011
723 2 22.3243 1.28643 32.1384
23 2 26.8799 4.20927 33.2917
22 1 27.7393 3.83776 33.6429
480 2 25.5176 6.58765 36.2876
322 1 1.21634 7.85697 39.5253
638 2 21.4974 15.6328 40.0605
726 2 1.50406 2.28125 37.4899
355 1 7.22241 14.5805 39.5467
433 1 29.9765 29.3927 38.7926
508 1 24.2043 2.70879 34.2968
49 1 25.5452 5.24719 33.1424
24 2 27.5491 3.03543 34.2087
235 1 27.8798 29.4005 36.5556
236 2 28.7183 29.209 37.0657
510 2 25.087 2.29888 34.5266
267 2 26.7177 1.20205 35.5357
265 1 26.745 2.19773 35.6245
266 2 27.0673 2.44213 36.539
27 2 27.4216 2.83055 39.0011
25 1 27.1056 2.94575 38.0594
26 2 26.227 3.42337 38.0587
724 1 1.06517 1.74555 38.2113
77 2 28.331 5.47359 34.5932
434 2 0.314704 0.330981 38.7205
76 1 28.6215 6.38875 34.8727
56 2 4.04542 9.33849 36.8453
699 2 1.38977 7.06373 34.6334
697 1 1.41518 6.17832 35.0975
567 2 4.03708 6.41937 36.4124
566 2 3.12589 5.59944 35.3335
565 1 4.01451 5.6365 35.7907
52 1 1.82426 9.12296 35.1478
53 2 2.20885 9.86291 34.5959
698 2 0.482554 5.83801 35.2175
325 1 1.09048 12.1021 34.9568
54 2 1.15974 9.49936 35.7933
326 2 1.91898 12.097 34.3968
55 1 3.82473 8.36343 36.8216
57 2 2.93876 8.23294 36.3766
328 1 4.90944 11.3132 38.2473
329 2 5.88057 11.0813 38.191
273 2 5.7723 6.78864 38.894
272 2 5.1295 7.59168 37.6257
271 1 5.98127 7.29332 38.0563
88 1 7.58931 10.8359 37.6252
330 2 4.62672 11.7712 37.4045
89 2 7.8305 11.4467 36.8711
942 2 0.557202 25.8183 39.4587
252 2 10.8191 4.73779 35.9404
306 2 12.7976 7.58123 39.8672
493 1 12.683 5.85007 39.7766
727 1 28.4061 25.591 37.6882
250 1 11.4531 4.70417 35.1678
251 2 10.9497 4.85435 34.3168
60 2 8.34566 6.04325 33.5037
58 1 8.69806 5.90025 34.4286
168 2 6.427 5.96907 36.9051
276 2 7.6932 7.68426 37.8439
274 1 8.58704 8.1287 37.9032
65 2 9.99485 8.34628 33.3251
59 2 7.93616 5.7255 35.0522
275 2 9.16271 7.63394 38.5542
64 1 9.61501 8.64077 34.202
66 2 9.25767 7.84684 34.694
90 2 8.03038 9.94869 37.4896
305 2 12.4407 8.69611 38.7287
334 1 10.9093 9.27645 37.5156
335 2 10.0112 8.83799 37.4805
63 2 9.1991 10.495 34.623
336 2 11.4083 9.08195 36.6711
304 1 12.9313 8.53101 39.5843
69 2 14.5304 8.99055 35.0334
288 2 18.1983 6.51057 37.3123
4 1 15.073 5.4124 38.4575
494 2 13.5553 5.53199 39.4052
6 2 15.5414 6.25147 38.7343
35 2 12.8722 5.54942 35.8735
34 1 13.4966 6.15049 36.3725
5 2 14.4521 5.61184 37.6994
36 2 14.0621 6.65757 35.722
39 2 17.3799 8.45049 36.5301
37 1 17.306 9.43408 36.6947
40 1 15.4849 7.29902 34.6531
286 1 17.8294 6.52318 36.3829
38 2 16.5827 9.60674 37.3632
68 2 14.7349 9.32655 36.6183
42 2 16.1691 6.85018 35.2279
67 1 14.1312 9.44476 35.8299
308 2 14.6089 9.32065 39.169
307 1 15.4366 9.17038 38.6283
417 2 7.78809 27.0092 37.5
582 2 15.8851 12.5423 38.8126
93 2 17.7284 10.9623 35.6786
356 2 7.84799 13.8645 39.8565
309 2 15.9677 8.42541 39.0319
287 2 18.5452 6.25882 35.7366
47 2 23.6883 9.23802 33.4181
529 1 18.9139 7.01201 38.9749
262 1 22.5252 5.94718 37.4593
263 2 22.1188 6.83616 37.2484
310 1 21.1055 10.7646 37.8624
285 2 21.0335 7.95032 36.0717
283 1 20.761 8.06518 37.027
284 2 20.9703 8.99694 37.3236
45 2 22.4136 7.93123 34.1301
44 2 21.0365 7.05363 34.1279
43 1 21.5097 7.8293 34.5455
311 2 21.518 10.8225 38.7715
312 2 20.2166 11.2227 37.8699
92 2 19.0785 11.116 34.7729
531 2 19.5727 7.24355 38.259
620 2 28.9339 16.3136 39.5533
91 1 18.3692 11.6136 35.272
74 2 24.8205 12.0705 37.6213
99 2 22.0079 12.617 37.344
80 2 29.3075 11.8664 34.9099
79 1 28.4505 11.5006 35.2728
50 2 25.3568 5.6319 34.046
81 2 28.5469 11.3377 36.2547
51 2 25.3508 5.93301 32.441
346 1 26.143 12.603 34.7694
291 2 25.2419 8.48575 35.4463
289 1 25.7161 8.77824 36.2767
73 1 25.6147 11.5836 37.2577
290 2 25.4712 9.72528 36.4844
323 2 1.91561 8.57173 39.5365
909 2 21.6599 23.9845 39.1196
593 2 28.7768 12.9344 39.137
536 2 27.4054 6.68669 38.0543
537 2 27.1016 7.93871 37.0509
78 2 28.0695 6.69078 35.6499
107 2 28.5751 11.3197 38.5879
106 1 28.3613 10.7407 37.8011
297 2 28.3404 8.01997 33.5175
350 2 24.8103 8.61722 38.1785
298 1 2.28821 10.4525 39.1705
324 2 0.699771 7.90939 38.6707
535 1 27.4394 6.99902 37.1049
108 2 27.3754 10.7557 37.6344
258 2 17.3191 1.06539 38.9874
75 2 25.8716 11.9773 36.375
300 2 3.08512 10.9124 38.7788
966 2 21.4541 0.950219 39.9274
327 2 1.33108 12.3043 35.9062
84 2 4.19024 12.6409 34.9454
82 1 3.61224 12.0226 34.4128
402 2 1.37125 17.1671 39.8639
114 2 2.08719 13.6431 38.2465
111 2 3.05889 14.904 39.4043
113 2 3.01232 13.6535 36.9008
112 1 2.12732 13.3849 37.2812
86 2 4.67051 14.7393 35.8012
85 1 4.83328 13.7956 36.0891
596 2 4.61562 16.4357 39.0196
87 2 5.78475 13.6953 36.38
161 2 2.364 19.1258 34.6012
160 1 2.77361 18.7323 35.4242
162 2 2.08445 18.203 35.9192
595 1 4.14275 15.8646 38.3486
597 2 4.24827 16.2637 37.4378
157 1 4.89862 16.5251 35.7349
158 2 4.30709 17.1899 35.2787
83 2 4.05549 11.8217 33.5392
159 2 5.83711 16.87 35.7513
939 2 25.1924 23.8965 36.1561
303 2 7.83148 10.9727 39.421
332 2 10.8834 11.1354 37.8972
256 1 16.3262 1.18304 38.9738
61 1 8.7833 11.297 35.0519
118 1 10.2562 13.7364 35.8395
119 2 11.0415 14.0379 35.2986
116 2 8.18183 14.9835 36.6927
115 1 7.595 14.1954 36.5069
117 2 8.03557 13.6036 35.8318
120 2 10.4971 13.7447 36.81
62 2 9.49348 11.9696 35.2599
362 2 9.7193 16.385 38.5546
123 2 10.9386 16.2694 35.6174
357 2 7.39709 14.7815 38.5828
361 1 9.41595 16.5279 37.6125
363 2 9.54536 17.4875 37.3625
964 1 22.382 1.11122 39.5911
575 2 10.4236 12.866 39.3309
121 1 11.7227 16.0212 35.0486
899 2 7.96946 23.4115 39.4484
619 1 28.1738 15.6945 39.7507
122 2 11.7693 16.6337 34.2595
365 2 13.7387 14.9106 39.3387
555 2 18.2424 12.6381 38.4135
146 2 13.6077 15.3841 35.6744
95 2 16.2019 14.8197 35.9475
96 2 16.973 15.567 34.7172
94 1 17.0858 15.1549 35.6214
580 1 16.6432 13.1591 39.0244
331 1 11.2767 12.0445 38.0344
333 2 12.1675 12.094 37.5828
550 1 13.8015 12.1356 36.975
366 2 14.9556 15.9085 39.7747
364 1 14.5789 15.3568 39.0305
552 2 13.9789 11.2672 36.5121
551 2 14.1164 12.8905 36.3997
369 2 17.268 16.794 36.5663
367 1 17.2283 17.7664 36.796
581 2 16.2917 14.0858 39.1576
338 2 18.8114 14.6811 35.2554
145 1 14.1638 14.7841 36.2494
147 2 14.3103 15.2168 37.139
126 2 19.8997 15.0765 33.741
102 2 23.0939 11.9029 33.7013
398 2 23.3368 17.3291 34.3644
397 1 24.1664 16.9817 34.8016
425 2 21.02 17.2854 34.1469
554 2 18.7091 11.9163 37.025
424 1 21.7206 17.9554 34.3924
553 1 18.9949 12.1714 37.9487
339 2 18.9876 13.0773 35.0036
337 1 19.4625 13.957 35.028
372 2 21.0562 13.044 33.5705
632 2 10.7895 20.4193 39.8031
342 2 19.8372 13.6723 39.087
340 1 20.0393 14.2713 39.8619
292 1 23.7646 6.01403 39.9091
97 1 22.0709 13.5561 37.0062
98 2 21.5324 13.6459 36.1684
370 1 21.777 12.7845 32.9278
371 2 21.6391 13.2637 32.061
443 2 12.836 25.3075 38.5023
614 2 23.0692 17.4892 39.504
345 2 22.9159 13.6158 38.451
343 1 23.5694 13.205 39.0867
344 2 24.3471 13.8215 39.2098
588 2 25.0789 17.5278 38.1549
624 2 4.56272 21.3818 39.5497
347 2 26.3074 13.3889 34.1733
908 2 20.9196 22.7287 39.8555
29 2 7.0349 4.39967 39.866
886 1 25.5627 14.9918 39.153
888 2 25.3451 15.6686 38.4497
133 1 29.3758 13.8132 37.7602
135 2 0.276802 13.6296 37.3671
621 2 28.4017 14.7746 39.4316
935 2 23.758 24.8711 37.8551
134 2 28.8546 14.3992 37.1397
587 2 25.3334 17.3101 36.5567
586 1 25.5145 16.9443 37.4696
374 2 0.376016 17.1562 37.2126
373 1 0.0355629 17.1125 36.2734
376 1 27.8621 15.5873 36.4551
377 2 27.6086 15.128 35.6038
378 2 27.1039 16.1625 36.7621
375 2 29.2462 16.4998 36.2331
400 1 0.609057 17.1344 39.2173
936 2 23.4723 25.6454 39.2642
427 1 29.0352 18.674 34.127
429 2 29.3428 18.1796 34.94
401 2 0.21101 18.0471 39.1249
530 2 19.1183 7.53978 39.7993
137 2 4.2395 21.6176 36.3902
136 1 4.08977 22.4239 35.818
404 2 2.39793 22.4119 35.2716
138 2 4.73206 23.1436 36.0815
379 1 4.40406 19.865 37.0721
380 2 4.20949 19.5644 38.0058
381 2 3.73025 19.4701 36.4476
353 2 5.6986 19.173 35.7034
432 2 3.19906 24.5548 39.0112
352 1 6.28951 18.6614 35.0795
354 2 6.63411 19.2747 34.3688
895 1 4.67423 23.3326 39.4685
406 1 1.16296 25.1526 35.7238
216 2 0.134944 21.6639 35.3125
646 1 29.3189 19.9034 38.5758
648 2 28.7237 19.6596 37.8101
430 1 2.44644 25.1788 39.2215
896 2 5.53136 23.5023 38.9822
408 2 1.01808 26.0721 36.0894
655 1 10.7659 25.5281 35.9064
390 2 8.24154 19.553 39.8292
385 1 6.82763 23.7766 37.7275
386 2 7.35072 23.0811 37.2348
144 2 9.51174 22.3539 36.3444
140 2 5.65419 21.6813 34.6967
142 1 8.59028 22.0589 36.5972
143 2 8.05851 21.8806 35.7693
139 1 6.64817 21.6697 34.5878
141 2 6.91624 22.3462 33.9018
358 1 9.5524 19.2836 37.214
360 2 10.4134 19.784 37.3048
359 2 8.83686 19.9061 36.8971
387 2 6.82935 24.6283 37.2035
660 2 11.7131 21.7015 37.7429
658 1 11.9293 20.7758 38.0535
170 2 8.52614 24.2918 33.3101
169 1 7.63352 23.8635 33.451
171 2 7.02412 24.5076 33.9134
172 1 11.3438 23.0293 36.3124
173 2 11.1492 23.9365 35.9395
368 2 16.2964 18.007 37.0676
201 2 15.399 22.3779 32.8969
607 1 14.6496 18.2417 37.4583
608 2 14.862 19.1578 37.7985
634 1 17.8573 21.1836 38.5746
150 2 15.1686 18.9749 33.9663
659 2 12.7956 20.4825 37.6494
661 1 19.383 22.3197 36.4762
609 2 14.6316 17.5979 38.2232
392 2 15.9491 21.1282 38.4614
391 1 15.1426 20.7998 37.9698
148 1 14.6031 19.5853 34.521
149 2 14.3755 19.1355 35.3847
393 2 14.9322 21.4257 37.2188
662 2 18.808 22.3462 35.6585
635 2 18.511 20.4666 38.8164
199 1 16.0421 21.6196 33.0033
197 2 14.2157 21.0526 35.1445
200 2 15.5683 20.8341 33.4013
636 2 18.2762 21.8081 37.9154
196 1 14.1085 21.9464 35.5801
174 2 12.203 22.6891 35.9302
686 2 15.1168 23.918 38.2704
426 2 21.2819 18.812 34.664
396 2 17.3713 18.5612 35.1927
183 2 17.186 22.0092 33.8732
612 2 18.8238 18.3512 37.9481
181 1 18.0711 22.2435 34.2753
613 1 23.7623 18.1939 39.3524
476 2 19.4959 1.79398 38.8483
421 1 20.8152 20.1647 35.529
422 2 20.2491 20.9053 35.891
934 1 23.3459 24.7896 38.7626
610 1 19.0926 18.5184 38.8967
394 1 17.4815 19.0709 34.3394
395 2 17.9225 19.948 34.5297
669 2 20.0365 20.0185 39.4957
664 1 21.9358 19.6431 37.974
665 2 22.5269 19.0128 38.4773
423 2 21.4657 19.8699 36.229
666 2 21.4412 20.2241 38.6203
213 2 23.5227 20.7404 37.6815
428 2 28.0825 18.4389 33.9345
538 1 26.8263 6.4559 39.9719
154 1 25.7476 21.4711 34.7189
156 2 26.2956 22.2312 35.0682
208 1 26.7784 23.6429 35.7568
725 2 0.819895 2.34758 38.9712
442 1 12.5238 25.9552 37.8073
210 2 26.9161 24.5637 35.392
937 1 24.2212 24.0808 36.3075
938 2 23.6853 23.2767 36.0502
431 2 2.7463 25.8443 39.905
459 2 25.7208 21.2484 39.0683
675 2 28.8903 22.7501 38.4605
211 1 24.4885 20.9903 37.7506
674 2 29.2092 22.2481 36.9397
673 1 28.9507 23.0327 37.5031
407 2 1.48421 24.5502 36.4545
212 2 24.9262 20.879 36.8584
647 2 28.9112 20.6599 39.0872
215 2 29.2582 20.424 34.7121
214 1 29.399 21.0152 35.5063
611 2 18.5255 17.9645 39.5063
887 2 26.5298 15.0638 39.397
702 2 3.4932 29.4944 38.7602
651 2 2.0642 0.425817 35.2137
682 1 6.44702 29.8841 39.0677
728 2 28.642 24.6418 37.4802
349 1 24.4752 8.77296 39.1077
701 2 1.86523 29.6125 38.8089
486 2 28.9898 28.8263 33.7268
1214 2 1.89967 28.3922 36.2511
240 2 3.68904 26.6928 33.9647
649 1 2.67482 29.7452 35.6186
957 2 17.4842 26.762 39.7648
238 1 3.97444 27.3855 34.627
239 2 3.44774 28.223 34.4812
383 2 3.32841 25.7933 37.3096
650 2 3.31908 0.199536 36.2339
384 2 4.24015 26.4215 36.1093
684 2 6.61783 28.9465 38.7648
382 1 4.26327 25.9586 36.9954
653 2 5.70299 26.8477 37.824
652 1 6.25691 27.2637 38.5451
945 2 0.425833 27.5117 35.1113
1213 1 1.15236 27.8001 36.5527
943 1 0.0847813 27.6057 34.1759
1215 2 0.812306 28.1172 37.438
413 2 10.0249 29.5076 37.73
657 2 11.3319 25.7146 36.7095
656 2 10.0936 26.26 35.7952
410 2 5.86899 26.8271 34.8203
412 1 10.5475 28.6757 37.5439
414 2 11.4648 28.7644 37.9321
416 2 9.21686 27.5727 36.9454
415 1 8.47658 26.921 36.7802
470 2 13.1546 25.7401 35.6757
409 1 6.61227 26.1603 34.7659
700 1 2.65914 29.1199 39.1654
411 2 7.45282 26.5683 35.1222
351 2 25.0177 9.49247 39.5414
685 1 14.71 23.9027 39.1838
544 1 9.86808 6.72808 39.6794
226 1 12.9394 28.7222 38.8146
471 2 14.4442 26.6117 35.1817
469 1 14.0384 25.6982 35.2096
444 2 12.539 26.8814 38.1841
204 2 16.9894 26.2583 35.2868
227 2 13.6686 29.041 38.2091
228 2 13.3124 28.5579 39.7278
454 1 26.988 26.3317 35.4777
663 2 19.7341 23.2365 36.6666
198 2 14.6959 22.6133 35.1216
472 1 16.5549 27.6537 36.1096
418 1 17.6186 25.7688 38.288
419 2 16.8165 25.5293 37.7409
447 2 15.0159 24.6832 36.4755
446 2 16.4988 24.0898 36.1354
445 1 15.8326 24.2552 36.8626
420 2 18.4489 25.5352 37.7821
206 2 18.86 28.2831 34.6477
691 1 20.0606 24.943 37.2485
959 2 20.5026 28.4833 39.1247
907 1 20.8138 23.6764 39.5546
729 2 28.8065 25.8491 38.5674
637 1 21.5897 16.6282 40.0341
237 2 28.0863 29.441 35.578
716 2 20.7623 28.4964 36.9698
453 2 25.3563 26.7338 36.0949
451 1 24.5403 27.3019 35.988
692 2 20.3346 24.6074 38.1498
693 2 20.8106 25.468 36.8462
452 2 24.6046 27.8206 35.1354
450 2 20.9568 27.1116 35.4291
448 1 21.4439 27.0347 36.299
449 2 22.4297 27.0565 36.1321
483 2 24.0046 28.6438 37.2341
481 1 24.1483 29.4904 37.7465
683 2 6.1597 29.8778 40.0255
482 2 24.961 29.3981 38.3218
242 2 26.9071 29.0797 38.0226
435 2 29.2703 29.3462 39.499
241 1 26.4113 28.9161 38.8755
456 2 27.5749 26.1161 36.258
944 2 0.31761 26.7861 33.6524
209 2 27.4598 23.4598 36.4655
694 1 25.2173 29.0278 33.7733
695 2 24.5087 29.6886 33.5256
696 2 26.0298 29.1841 33.2117
455 2 27.1365 27.2813 35.2013
485 2 28.5708 0.208734 32.9652
243 2 27.0522 28.6128 39.5806
484 1 28.2599 29.4971 33.5953
546 2 10.73 6.33845 40.0039
561 2 23.0264 9.04579 39.7036
710 2 9.56212 0.932364 39.7872
570 2 5.05615 10.3934 39.7103
341 2 19.3037 14.9405 39.9666
618 2 26.5729 11.3671 39.813
687 2 15.4191 24.0753 39.8675
299 2 1.77231 11.0996 39.7317
257 2 16.021 1.54303 39.8554
869 2 11.314 16.5629 39.9261
622 1 4.64881 20.4418 39.8797
667 1 20.5594 20.7365 39.9551
592 1 28.5535 12.3247 39.8975
732 2 2.08972 4.27088 40.1815
948 2 3.68781 1.4891 44.8451
705 2 3.5509 3.50959 44.2134
488 2 4.50226 2.12789 41.3965
703 1 4.33506 2.89015 44.1761
704 2 4.69365 2.8621 43.243
487 1 5.22594 2.78375 41.6114
489 2 5.40573 3.35572 40.811
730 1 1.40932 3.66126 40.5882
1244 2 3.67094 5.56612 44.3882
1243 1 2.9707 5.22571 43.7607
1245 2 2.88263 5.85346 42.9872
1028 2 0.608838 5.13619 44.1627
1026 2 1.61102 1.54895 44.3204
1025 2 30.0001 1.49908 44.0576
1024 1 0.899872 1.45869 43.6232
731 2 0.594368 4.1869 40.8323
516 2 7.69648 8.40414 42.4573
507 2 24.3976 2.77418 41.4381
946 1 3.23594 0.935987 45.545
437 2 4.72959 0.0336606 41.6539
707 2 7.12742 2.47947 41.8868
978 2 7.56221 1.91351 45.1892
708 2 6.96084 0.866377 42.0787
762 2 7.09287 5.23526 44.9787
760 1 7.22612 5.51978 44.0294
734 2 13.1274 3.57369 46.0891
736 1 10.7412 0.64215 45.2962
737 2 9.82884 0.997748 45.0934
706 1 7.6054 1.63024 42.1112
977 2 8.12756 1.75008 43.6659
976 1 8.3282 1.59165 44.6327
711 2 9.24302 1.43472 41.3078
709 1 9.96196 1.30344 40.6253
738 2 10.6871 29.6563 45.4547
953 2 11.2042 1.5124 42.0135
763 1 10.2716 5.35684 44.3629
765 2 9.27311 5.40741 44.3399
954 2 11.65 1.59502 43.5823
952 1 11.7454 2.02146 42.6828
248 2 7.61311 5.5116 42.3399
464 2 11.9532 3.71674 42.5299
465 2 11.3824 5.1664 43.0191
463 1 11.975 4.7021 42.3608
1005 2 11.1729 4.05532 45.0768
1436 2 6.92293 0.222544 46.8325
761 2 6.82745 6.42686 43.8942
247 1 7.36137 5.61559 41.3777
2266 1 28.9838 8.79056 59.8001
468 2 13.4271 2.54529 43.1847
735 2 14.5136 3.53634 45.2268
466 1 14.3005 2.95813 43.4431
733 1 14.1199 3.68786 46.1334
739 1 13.4884 0.0366438 45.5004
741 2 12.5253 0.300532 45.4474
744 2 14.8176 0.155658 44.3975
742 1 15.6604 0.198549 43.861
743 2 15.7313 1.09461 43.4227
496 1 16.7819 2.67022 41.79
1007 2 14.7671 5.32142 46.5924
1209 2 17.0713 29.8687 45.1008
740 2 13.7941 30.08 46.4516
1207 1 17.6697 29.588 45.8512
497 2 17.3378 1.89553 42.0912
498 2 17.3792 3.39849 41.454
467 2 14.7581 3.30885 42.6261
500 2 18.3099 5.47725 41.7249
499 1 18.3463 5.02329 40.8346
930 2 12.6991 28.3601 44.1119
523 1 17.3115 5.49331 47.852
525 2 16.5808 5.9072 47.3091
441 2 14.3609 27.9225 41.725
1208 2 18.1733 0.382285 46.1909
746 2 17.9107 3.528 44.1389
771 2 19.4252 1.53165 44.5371
769 1 19.5197 1.53886 43.5416
770 2 20.1502 2.2667 43.2719
745 1 18.5294 4.29439 44.3117
749 2 20.1427 29.8893 42.7636
747 2 18.1163 5.13937 43.9721
991 1 23.9546 2.69665 44.3777
993 2 23.431 1.87804 44.1417
752 2 23.5023 0.6005 42.6863
753 2 22.2984 29.6042 43.1603
751 1 23.0535 0.179485 43.4746
1262 2 20.6636 3.12587 46.0207
1263 2 20.0684 4.30708 45.0631
1261 1 20.9036 3.8795 45.4088
503 2 19.1267 3.65233 40.4286
534 2 22.0393 3.83722 42.3012
532 1 21.3327 3.24499 42.6885
504 2 20.3208 3.01104 41.3394
1447 1 19.7484 1.55992 46.3712
502 1 19.7849 2.90303 40.5021
533 2 21.2394 3.43302 43.6663
1020 2 22.683 4.67683 45.9011
1448 2 19.4193 2.06524 47.1689
1049 2 23.0709 6.84468 45.6164
1449 2 20.4886 0.946794 46.6471
164 2 2.866 27.8083 40.3226
270 2 28.3664 3.7298 41.7418
1185 2 25.4483 3.04181 45.7901
754 1 28.7834 2.14554 41.5417
996 2 27.7085 2.08944 45.5193
1021 1 27.3139 5.82958 45.3009
755 2 29.6807 1.7962 41.8118
756 2 28.1558 1.37967 41.402
1183 1 26.3382 3.28978 46.173
1184 2 26.6067 4.19184 45.8351
1212 2 25.8092 1.14785 42.1538
994 1 28.2778 1.52169 44.9248
995 2 27.7508 1.24894 44.1199
1210 1 26.4902 0.506595 42.5075
511 1 24.0482 4.88023 42.3305
1022 2 28.2791 5.72249 45.0626
512 2 24.9382 5.2247 42.6294
269 2 28.7576 5.02496 42.6562
268 1 28.1353 4.67934 41.9539
1211 2 26.0401 29.8309 43.0913
540 2 27.2414 5.78649 40.588
548 2 12.9058 9.70583 40.754
514 1 6.96686 8.0027 43.0109
2371 1 25.7476 25.6837 57.4856
2287 1 25.171 8.60199 59.8886
515 2 6.71117 8.63987 43.738
1272 2 2.64035 8.51409 43.7916
1270 1 3.08068 8.89387 44.6052
1052 2 2.03345 10.1165 45.978
1271 2 4.0249 9.1416 44.3882
782 2 1.4734 7.81117 41.4491
781 1 1.52131 7.87277 42.4461
1517 2 28.9873 8.65003 44.1714
783 2 0.64604 8.19994 42.8023
809 2 5.62988 12.5036 45.4939
645 2 23.3794 16.141 41.4672
786 2 5.15293 7.96176 40.6662
574 1 9.76812 13.2581 39.9764
898 1 8.04649 23.0487 40.3771
784 1 5.11974 6.97992 40.853
1516 1 29.1297 8.1752 43.3029
1146 2 17.1991 21.5681 40.0493
1248 2 1.90567 8.41193 47.3442
764 2 10.6121 5.85205 45.1622
249 2 7.80918 6.42686 41.0018
279 2 6.18068 10.1288 45.4244
568 1 5.57029 9.84127 40.3666
277 1 5.65206 9.88171 44.6123
813 2 10.7457 10.0176 44.2301
811 1 10.9762 9.22401 43.667
814 1 9.14841 8.94643 41.25
816 2 9.73697 9.07604 42.048
815 2 8.78457 9.83062 40.9571
792 2 11.8296 7.92472 46.5387
278 2 5.91666 10.4723 43.8499
812 2 11.6916 9.47458 43.0148
790 1 11.0207 7.66761 46.0099
791 2 11.01 8.1759 45.1488
819 2 12.417 11.856 41.6935
569 2 6.39096 10.3378 40.6494
1139 2 2.19919 20.3489 40.0925
1001 2 3.81085 5.94398 40.2944
785 2 5.83472 6.74132 41.5101
388 1 7.43902 20.0852 40.0989
787 1 6.66259 11.3047 46.874
519 2 9.23232 7.09329 46.0008
518 2 8.234 5.98822 46.6707
517 1 8.39399 6.96536 46.5307
789 2 6.4891 11.9269 47.6375
492 2 14.2556 5.65911 43.9449
1006 1 14.9805 6.26584 46.8424
796 1 17.0588 6.52092 43.1336
491 2 13.5391 5.58309 42.4795
490 1 14.2842 5.99551 43.0036
301 1 8.1527 11.1184 40.3567
547 1 12.8651 10.1936 41.626
549 2 13.5693 9.83751 42.2403
520 1 14.6793 8.92778 43.2325
521 2 15.2453 8.99895 44.0538
1017 2 16.0788 8.06819 46.101
799 1 16.8106 9.76362 41.7012
522 2 14.3982 7.97689 43.1028
1015 1 16.4476 8.44119 45.2496
1016 2 17.4339 8.57596 45.3444
281 2 15.3312 6.89442 40.8201
798 2 16.1436 6.12933 43.0383
1498 1 17.1303 11.0758 46.5798
1500 2 16.3688 11.5167 46.1047
793 1 13.0529 10.8421 45.8897
794 2 13.7014 11.5993 45.9675
800 2 16.1178 9.82444 42.4198
795 2 13.3509 10.0868 46.4734
1019 2 24.0407 4.92418 46.7741
598 1 5.27736 17.4948 40.3781
797 2 17.0264 7.29362 43.7675
1048 1 23.0715 7.82835 45.4364
528 2 18.5853 9.04354 41.2901
526 1 19.33 8.40024 41.1123
1499 2 17.7885 11.7702 46.8706
1018 1 23.4095 5.33041 46.1134
990 2 21.2869 8.30883 44.273
527 2 19.8628 8.26786 41.9481
774 2 21.0797 10.2832 43.0537
988 1 20.4661 8.36934 43.7049
989 2 19.6539 8.30416 44.2848
776 2 26.2556 6.3961 44.0899
772 1 21.33 11.247 43.1462
777 2 24.791 7.03275 43.7489
802 1 21.9639 11.4868 45.9047
804 2 21.7002 11.4133 44.9429
803 2 21.9412 10.5806 46.3268
775 1 25.7395 6.95556 43.4414
1042 1 19.0066 9.14783 45.7573
1044 2 18.3364 9.8443 46.0139
1043 2 19.7423 9.12781 46.4343
1259 2 20.3208 6.85127 47.7757
559 1 22.2738 9.40402 40.2561
801 2 17.0114 10.6794 41.3534
560 2 21.4208 8.95653 39.9877
2913 2 24.4248 1.96777 57.0126
864 2 3.6335 17.3541 40.8186
539 2 26.7885 7.34686 40.4244
1100 2 25.501 14.1241 46.3235
513 2 23.7868 5.32938 41.4762
564 2 26.5251 8.3714 42.4965
562 1 26.9105 8.82007 41.6902
1027 1 29.7287 5.4985 43.8561
1029 2 29.8411 6.45047 43.5712
1050 2 23.9494 8.21768 45.7151
807 2 27.1049 12.309 45.3969
779 2 25.6951 9.91414 45.513
805 1 27.0704 11.4879 44.8272
806 2 27.0072 11.7522 43.8649
1102 1 26.8787 12.9219 42.249
1104 2 26.671 13.8829 42.4317
1103 2 27.5187 12.8589 41.4833
1518 2 28.349 8.34125 42.7003
912 2 24.0671 27.6735 41.1059
2252 2 12.463 10.7211 59.8531
563 2 26.4365 9.6863 41.5322
644 2 24.572 15.4532 40.589
543 2 1.69604 12.2869 44.4254
837 2 1.04754 12.4711 41.9797
833 2 28.1788 13.8513 45.4026
541 1 1.25548 12.8789 43.7505
542 2 0.600389 13.4785 44.2102
808 1 5.3209 13.3674 45.0959
1324 1 3.40704 13.9814 47.0154
1325 2 4.0283 13.7623 46.263
1107 2 3.4826 16.6511 44.4827
1105 1 3.08969 16.2841 43.6395
571 1 3.77263 13.8785 42.5053
863 2 2.69328 17.0039 42.107
572 2 3.2132 13.1615 42.9212
1106 2 2.13158 16.0437 43.7953
840 2 5.53832 14.5689 42.2235
573 2 3.49151 14.7695 42.8618
838 1 6.53773 14.5883 42.1953
810 2 5.91679 13.6144 44.3318
1083 2 6.48855 16.588 43.134
862 1 2.70499 17.3967 41.1874
839 2 6.843 14.6624 41.2459
1376 2 1.35457 18.0802 41.8262
110 2 3.41154 13.5572 40.2578
910 1 25.0394 27.9022 41.0582
1055 2 6.37842 12.423 42.4549
818 2 11.2225 12.8585 41.2087
1081 1 6.60523 17.3961 43.7113
1054 1 6.90261 11.7694 43.0007
1056 2 7.86192 11.7939 42.7194
1059 2 9.17007 14.0722 45.0798
841 1 9.1763 17.7489 42.3427
844 1 10.5793 13.8955 43.8398
846 2 10.6517 13.0586 44.3824
842 2 8.45555 17.8758 43.0242
845 2 11.1087 13.7935 42.9976
817 1 12.0422 12.7794 41.7761
1057 1 8.70056 14.2522 45.9442
1058 2 8.13653 15.0729 45.8525
913 1 24.9876 19.3968 41.5357
506 2 23.5409 1.51834 40.8418
601 1 11.5459 16.5544 44.2521
602 2 10.9805 16.0428 43.6052
603 2 11.2064 16.4064 45.181
639 2 20.6906 17.0496 40.1526
843 2 9.14355 18.4968 41.6797
1033 1 10.6543 11.5779 45.2729
495 2 12.4225 5.27652 40.5532
616 1 25.9887 10.7785 40.3718
1085 2 6.08112 16.8227 46.8006
868 1 10.4909 16.0744 40.2158
282 2 16.8348 7.52065 40.937
823 1 14.6595 12.9988 45.5799
1034 2 11.6331 11.5007 45.463
824 2 14.6772 13.2019 44.6009
825 2 15.2876 13.612 46.0589
579 2 13.6158 13.0047 42.4578
2657 2 11.0663 25.8931 59.6661
606 2 15.2445 17.7683 41.0246
2061 2 11.348 15.2718 59.732
577 1 14.4789 13.3792 42.7968
820 1 14.1416 15.9809 43.3913
822 2 13.1966 16.2325 43.5999
578 2 15.2417 12.9453 42.3173
821 2 14.1825 15.0118 43.1478
584 2 17.7175 12.7267 42.1786
583 1 16.9104 12.5157 41.6271
605 2 15.4869 16.6337 42.1737
604 1 15.7555 16.9419 41.2611
827 2 17.4421 16.6274 40.5039
1067 2 14.7904 16.4395 44.8196
1066 1 14.9921 16.817 45.7234
1068 2 15.444 16.1214 46.2818
316 1 23.3593 11.8753 41.2612
773 2 22.0352 11.4741 42.4745
558 2 20.2116 12.6845 42.866
831 2 22.1058 13.2978 45.7164
1990 1 16.4066 6.40052 59.3323
826 1 18.4393 16.5623 40.5403
556 1 19.542 13.1576 42.2936
829 1 22.1372 14.1513 45.1963
830 2 23.0123 14.2175 44.7168
856 1 19.6188 14.8161 44.4558
857 2 20.5979 14.746 44.6465
858 2 19.4083 14.3279 43.6088
557 2 20.0188 13.7008 41.6025
1040 2 18.9334 16.4639 45.0073
599 2 6.26967 17.43 40.2726
1041 2 18.1715 17.8436 45.4344
1039 1 18.7647 17.1055 45.7556
1583 2 18.9696 14.0272 45.695
317 2 23.0449 10.9757 40.958
1128 2 22.7653 16.2478 47.1401
835 1 1.09623 12.3892 40.9842
1099 1 26.3945 13.7473 46.5679
2625 2 2.63935 24.8088 59.2846
836 2 1.63136 13.1481 40.6131
832 1 29.1628 14.0088 45.4857
859 1 0.389777 15.8326 43.6479
591 2 24.6361 13.1585 43.3072
1101 2 26.3585 13.3805 47.4975
589 1 24.5522 14.0442 43.7638
590 2 24.2793 14.7382 43.0975
834 2 29.5341 13.4247 46.2075
861 2 29.6877 16.2277 43.0555
860 2 -0.0469567 15.2993 44.3725
1130 2 27.5531 17.8013 42.8522
1345 1 26.053 16.9061 45.1296
1346 2 25.8058 16.3042 45.889
883 1 26.7927 16.0798 42.1689
884 2 27.3518 16.1927 41.3475
885 2 25.8493 15.8793 41.905
1347 2 25.7255 16.5114 44.2712
1775 2 23.5217 9.01782 58.2008
1372 1 27.9162 18.2684 46.3494
1374 2 27.1602 17.9053 45.8048
2560 1 26.2656 18.6799 59.4889
1370 2 25.914 18.0888 47.252
628 1 12.6744 18.1526 40.2395
2671 1 26.2679 29.5689 56.6726
643 1 24.2333 15.6229 41.5145
1138 1 1.41596 20.7881 40.5326
1108 1 5.53497 19.8811 42.8497
894 2 1.63747 22.1114 41.5328
1109 2 5.17173 20.2197 41.9818
1135 1 1.14286 21.4958 44.2784
1136 2 1.28954 21.8203 43.344
1137 2 1.1374 22.2751 44.905
1110 2 4.80746 19.8749 43.5358
302 2 8.67215 11.9717 40.4018
1619 2 4.64302 20.3401 46.0559
1569 2 3.17344 19.0728 45.1355
1567 1 3.31027 19.8917 44.5781
1568 2 2.46897 20.4322 44.5676
892 1 1.78913 22.9362 42.0775
1188 2 0.347994 23.7576 42.0764
893 2 2.72279 23.264 41.9332
1378 1 1.55876 23.1446 46.5684
922 1 4.72898 23.3193 42.2392
897 2 4.80533 23.5044 40.4449
1375 1 0.501612 18.5807 41.9742
1377 2 0.576195 19.4929 41.5712
1164 2 2.72881 24.2874 45.8206
1162 1 3.59002 24.6855 45.5047
1163 2 4.12755 23.9862 45.0335
1380 2 0.667294 23.2907 46.9973
1082 2 6.24838 18.2 43.2355
924 2 5.29601 22.7853 42.8663
2305 1 15.0346 14.0614 59.5622
1112 2 6.89207 20.2025 43.6824
1113 2 7.41961 20.4709 45.2043
1111 1 7.70206 20.3189 44.2571
633 2 10.0979 20.3293 41.2796
1086 2 6.69595 17.0758 45.3091
900 2 8.90784 23.3533 40.7836
1141 1 5.77656 23.1342 44.8231
1142 2 5.57335 22.2499 45.2435
1143 2 6.67652 23.4482 45.1256
874 1 9.72862 21.103 42.699
875 2 8.87263 21.0129 43.2081
1168 1 10.3658 23.6724 41.7747
1084 1 6.90092 16.7511 46.2325
876 2 9.97841 22.0691 42.6351